version 3
run General-0-20250610-16:21:45-7804
attr configname General
attr datetime 20250610-16:21:45
attr datetimef 20250610-162145
attr experiment General
attr inifile omnetpp.ini
attr iterationvars ""
attr iterationvarsd ""
attr iterationvarsf ""
attr measurement ""
attr network smartparkingsystem.SmartParkingNetwork
attr processid 7804
attr repetition 0
attr replication #0
attr resultdir results
attr runnumber 0
attr seedset 0
config network smartparkingsystem.SmartParkingNetwork
config sim-time-limit 7200s
config seed-set 0
config **.parkingLot.numSlots 20
config **.parkingLot.arrivalRate 0.05
config **.parkingLot.avgParkingDuration 1800.0
config **.parkingLot.simulationTime 7200.0
config **.parkingLot.sensorMalfunctionRate 0.001
config **.parkingLot.sensorRepairTime 300.0
config **.queue.maxQueueSize 50
config **.queue.displayStrings "\"i=block/queue;is=l\""
config **.controller.displayStrings "\"i=block/control;is=l\""
config **.slot[*].displayStrings "\"i=misc/square;is=l\""
config output-vector-file results/General-0.vec
config output-scalar-file results/General-0.sca
config repeat 10

vector 0 SmartParkingNetwork.parkingLot vehicleArrival:vector ETV
attr recordingmode vector
attr title "Vehicle Arrivals"
vector 1 SmartParkingNetwork.parkingLot occupiedSlots:vector ETV
attr recordingmode vector
attr title "Occupied Slots"
vector 2 SmartParkingNetwork.parkingLot utilizationRate:vector ETV
attr recordingmode vector
attr title "Utilization Rate"
vector 3 SmartParkingNetwork.parkingLot.slot[0] slotOccupied:vector ETV
attr recordingmode vector
attr title "Slot Occupied"
vector 4 SmartParkingNetwork.parkingLot.slot[1] slotOccupied:vector ETV
attr recordingmode vector
attr title "Slot Occupied"
vector 5 SmartParkingNetwork.parkingLot.slot[2] slotOccupied:vector ETV
attr recordingmode vector
attr title "Slot Occupied"
vector 6 SmartParkingNetwork.parkingLot.slot[3] slotOccupied:vector ETV
attr recordingmode vector
attr title "Slot Occupied"
vector 7 SmartParkingNetwork.parkingLot.slot[4] slotOccupied:vector ETV
attr recordingmode vector
attr title "Slot Occupied"
vector 8 SmartParkingNetwork.parkingLot.slot[5] slotOccupied:vector ETV
attr recordingmode vector
attr title "Slot Occupied"
vector 9 SmartParkingNetwork.parkingLot.slot[6] slotOccupied:vector ETV
attr recordingmode vector
attr title "Slot Occupied"
vector 10 SmartParkingNetwork.parkingLot.slot[7] slotOccupied:vector ETV
attr recordingmode vector
attr title "Slot Occupied"
vector 11 SmartParkingNetwork.parkingLot.slot[8] slotOccupied:vector ETV
attr recordingmode vector
attr title "Slot Occupied"
vector 12 SmartParkingNetwork.parkingLot.slot[9] slotOccupied:vector ETV
attr recordingmode vector
attr title "Slot Occupied"
vector 13 SmartParkingNetwork.parkingLot vehicleDeparture:vector ETV
attr recordingmode vector
attr title "Vehicle Departures"
vector 14 SmartParkingNetwork.parkingLot waitingTime:vector ETV
attr recordingmode vector
attr title "Waiting Time"
vector 15 SmartParkingNetwork.parkingLot.slot[10] slotOccupied:vector ETV
attr recordingmode vector
attr title "Slot Occupied"
vector 16 SmartParkingNetwork.parkingLot.slot[11] slotOccupied:vector ETV
attr recordingmode vector
attr title "Slot Occupied"
vector 17 SmartParkingNetwork.parkingLot.slot[12] slotOccupied:vector ETV
attr recordingmode vector
attr title "Slot Occupied"
vector 18 SmartParkingNetwork.parkingLot.slot[13] slotOccupied:vector ETV
attr recordingmode vector
attr title "Slot Occupied"
vector 19 SmartParkingNetwork.parkingLot.slot[14] slotOccupied:vector ETV
attr recordingmode vector
attr title "Slot Occupied"
vector 20 SmartParkingNetwork.parkingLot.slot[15] slotOccupied:vector ETV
attr recordingmode vector
attr title "Slot Occupied"
vector 21 SmartParkingNetwork.parkingLot.slot[16] slotOccupied:vector ETV
attr recordingmode vector
attr title "Slot Occupied"
vector 22 SmartParkingNetwork.parkingLot.slot[17] slotOccupied:vector ETV
attr recordingmode vector
attr title "Slot Occupied"
vector 23 SmartParkingNetwork.parkingLot.slot[18] slotOccupied:vector ETV
attr recordingmode vector
attr title "Slot Occupied"
vector 24 SmartParkingNetwork.parkingLot.slot[19] slotOccupied:vector ETV
attr recordingmode vector
attr title "Slot Occupied"
vector 25 SmartParkingNetwork.parkingLot.queue queueLength:vector ETV
attr recordingmode vector
attr title "Queue Length"
vector 26 SmartParkingNetwork.parkingLot queueLength:vector ETV
attr recordingmode vector
attr title "Queue Length"
vector 27 SmartParkingNetwork.parkingLot.queue vehicleQueued:vector ETV
attr recordingmode vector
attr title "Vehicles Queued"
vector 28 SmartParkingNetwork.parkingLot.queue vehicleDequeued:vector ETV
attr recordingmode vector
attr title "Vehicles Dequeued"
0	1	0	0
0	3	25.118615160948	1
0	5	43.583077790364	2
0	7	59.327100590002	3
0	9	70.348070323408	4
0	11	91.111256336685	5
0	13	102.621640274345	6
0	15	147.092128715071	7
0	17	213.390374313637	8
0	19	223.062416412606	9
0	24	254.440338765066	10
0	26	269.493821031322	11
0	28	286.282478089327	12
0	30	338.247559806306	13
0	32	339.721266915608	14
0	34	341.544487438094	15
0	36	341.952999206075	16
0	38	377.702752474848	17
0	40	407.818437647596	18
0	42	448.624722806434	19
0	44	525.529160189271	20
0	46	557.633951330501	21
0	48	570.012540523035	22
0	50	592.73131935724	23
0	52	613.159956844224	24
0	54	628.57665001357	25
0	56	643.333195848688	26
0	58	656.167089889311	27
0	66	685.932186404345	28
0	68	690.813156219075	29
0	70	691.192527603097	30
0	72	694.435257392016	31
0	74	713.626216939381	32
0	82	760.204484423665	33
0	84	769.114854324689	34
0	92	815.641875558576	35
0	94	816.884181367904	36
0	96	838.060863997656	37
0	98	842.78499811931	38
0	100	870.56585191513	39
0	102	879.607893119622	40
0	104	880.391556247884	41
0	118	969.481493171405	42
0	120	990.63802143845	43
0	122	994.156292346962	44
0	124	1011.594609419477	45
0	126	1024.1534410393	46
0	128	1043.690722520714	47
0	130	1046.029830716563	48
0	132	1053.660947584047	49
0	134	1058.038559514193	50
0	136	1079.763947131759	51
0	144	1081.806844762258	52
0	146	1104.203132077337	53
0	160	1179.183761269027	54
0	168	1193.435433135691	55
0	170	1212.005003073719	56
0	172	1212.408805636642	57
0	174	1219.057010455916	58
0	176	1227.965399694312	59
0	178	1230.493172422818	60
0	180	1272.977916362852	61
0	182	1274.303864392496	62
0	184	1290.960734713819	63
0	186	1297.129031515775	64
0	188	1346.840678655312	65
0	190	1363.998591476796	66
0	192	1370.505399787377	67
0	198	1392.522317989194	68
0	202	1413.357931072783	69
0	204	1420.191014413305	70
0	206	1430.335016878437	71
0	208	1430.74126605435	72
0	210	1439.97588397524	73
0	218	1462.62856681469	74
0	220	1486.958739883422	75
0	222	1552.461603437717	76
0	224	1580.682091623605	77
0	226	1598.613909039323	78
0	234	1618.9870836397	79
0	242	1680.032716777386	80
0	250	1691.960304663977	81
0	252	1716.005076008907	82
0	254	1745.141447180191	83
0	256	1755.241822135284	84
0	258	1760.990031656684	85
0	260	1803.686640656348	86
0	262	1827.274299329241	87
0	270	1853.112484705254	88
0	272	1867.028473923263	89
0	274	1872.269618756772	90
0	276	1882.315834721991	91
0	284	1901.604906031869	92
0	286	1914.487000198321	93
0	288	1921.665544515717	94
0	290	1943.25194848883	95
0	292	1950.103940982792	96
0	294	1969.351442098212	97
0	296	1980.550663499692	98
0	298	1983.462143068649	99
0	300	1990.546625713558	100
0	308	2007.424395165375	101
0	310	2025.298976731485	102
0	312	2025.983045098646	103
0	314	2095.433754684295	104
0	316	2103.176356527277	105
0	318	2108.177986426831	106
0	320	2111.22385893192	107
0	322	2113.270271228971	108
0	324	2196.026466439179	109
0	326	2202.057784703646	110
0	328	2217.459321894571	111
0	336	2229.340791861047	112
0	338	2231.438428573054	113
0	340	2256.490579071288	114
0	354	2391.79838947003	115
0	356	2395.035791204276	116
0	358	2395.801449461971	117
0	360	2414.920777940419	118
0	362	2417.564452132713	119
0	364	2455.243029864434	120
0	366	2488.177411890971	121
0	368	2505.015031125611	122
0	370	2515.472431727379	123
0	372	2516.905939413637	124
0	374	2540.814710739281	125
0	376	2552.900692176233	126
0	378	2578.507376252481	127
0	380	2618.762830976598	128
0	388	2692.962042814673	129
0	390	2731.693587564498	130
0	392	2760.649469204268	131
0	400	2818.341704246317	132
0	402	2846.067531286741	133
0	404	2860.790153286473	134
0	406	2861.907554344243	135
0	408	2866.370338506259	136
0	410	2866.744247914678	137
0	412	2898.312502356797	138
0	414	2903.382616459665	139
0	422	2911.8557584868	140
0	424	2964.500135737775	141
0	426	2982.659416284266	142
0	428	3013.276040809613	143
0	430	3027.140036200364	144
0	432	3028.173694316273	145
0	440	3052.193112447112	146
0	448	3149.775770206982	147
0	450	3168.812364357825	148
0	452	3208.755803707625	149
0	460	3236.549344983135	150
0	468	3303.30803166021	151
0	470	3313.465334113944	152
0	472	3318.497306376202	153
0	474	3323.434491752178	154
0	476	3340.294067260466	155
0	484	3352.327646990954	156
0	498	3422.617220601687	157
0	500	3428.487373640152	158
0	502	3429.648820882471	159
0	504	3437.12221677036	160
0	512	3460.959378843458	161
0	514	3470.447704650117	162
0	516	3486.087219067629	163
0	518	3524.654421805227	164
0	526	3551.893056291339	165
0	540	3564.917670929691	166
0	548	3580.30006695162	167
0	556	3605.38413235344	168
0	558	3610.273952794298	169
0	566	3657.652316211038	170
0	568	3658.069660583241	171
0	582	3700.740926332739	172
0	590	3747.697801561326	173
0	592	3765.447840131	174
0	594	3780.115193594359	175
0	596	3821.331618411976	176
0	598	3827.723111509433	177
0	606	3859.717500346234	178
0	608	3863.824455720948	179
0	610	3876.005347975125	180
0	612	3889.215409570109	181
0	620	3920.308668326285	182
0	622	3925.521470913814	183
0	624	3931.380500083546	184
0	626	3936.178970472272	185
0	628	3950.783523777053	186
0	630	3951.303478680915	187
0	632	3955.953979048611	188
0	634	3967.010746461647	189
0	636	3976.384275981185	190
0	638	3988.840862176483	191
0	640	3995.345182536009	192
0	642	4013.020895656667	193
0	644	4052.901679682207	194
0	646	4055.402331480677	195
0	648	4069.972808335364	196
0	650	4072.805649031268	197
0	652	4098.041902501013	198
0	654	4108.127501166043	199
0	662	4124.795065978961	200
0	664	4128.844241252923	201
0	666	4132.449727244489	202
0	668	4135.116539709941	203
0	670	4160.725026789517	204
0	672	4161.343552620727	205
0	674	4188.830412909135	206
0	676	4190.773766476476	207
0	678	4195.677728329322	208
0	680	4223.344057652345	209
0	682	4249.656582818282	210
0	684	4250.590337691172	211
0	686	4255.283454676301	212
0	694	4262.04654897319	213
0	702	4284.664918556964	214
0	704	4284.996240445396	215
0	706	4285.181900932956	216
0	714	4320.981693022579	217
0	716	4404.101114933842	218
0	718	4421.758725832984	219
0	720	4423.080566046852	220
0	732	4436.376721037883	221
0	736	4512.257196699638	222
0	738	4530.909433805015	223
0	740	4596.087853348708	224
0	742	4601.359395605412	225
0	750	4661.003409114864	226
0	758	4717.736212982374	227
0	760	4731.053062715114	228
0	762	4772.528291977115	229
0	764	4779.46335805289	230
0	766	4817.265392014816	231
0	768	4836.505630546617	232
0	770	4836.772135443185	233
0	772	4845.302851683915	234
0	774	4848.509533573647	235
0	776	4928.668526671134	236
0	778	4941.684473518317	237
0	780	4955.443343087537	238
0	782	4975.847084846633	239
0	784	4985.042911202149	240
0	786	4987.987411948411	241
0	794	5022.520079543256	242
0	796	5026.730745307338	243
0	798	5029.302350052863	244
0	800	5108.255015404043	245
0	802	5118.676591825738	246
0	804	5135.519317882484	247
0	806	5143.939183843464	248
0	808	5175.045071050554	249
0	810	5185.644302635994	250
0	812	5194.547289424122	251
0	820	5204.74710610111	252
0	834	5211.932984203632	253
0	836	5217.218393486347	254
0	838	5225.088441708801	255
0	840	5250.951398884716	256
0	842	5251.181263888886	257
0	844	5280.625347048759	258
0	846	5283.804010641882	259
0	848	5285.461256100252	260
0	854	5287.338747045904	261
0	858	5309.636495484044	262
0	866	5320.954386316741	263
0	868	5348.851768142004	264
0	870	5388.252919453853	265
0	884	5414.221832165947	266
0	886	5420.525032740263	267
0	888	5438.451616840673	268
0	890	5445.630843208207	269
0	892	5451.710274392784	270
0	894	5463.891563499256	271
0	896	5486.886391254252	272
0	898	5510.676316280951	273
0	900	5517.34438304846	274
0	902	5526.902742798683	275
0	904	5530.899853557097	276
0	906	5561.974763597741	277
1	1	0	1
1	3	25.118615160948	2
1	5	43.583077790364	3
1	7	59.327100590002	4
1	9	70.348070323408	5
1	11	91.111256336685	6
1	13	102.621640274345	7
1	15	147.092128715071	8
1	17	213.390374313637	9
1	19	223.062416412606	10
1	22	252.184533082618	9
1	24	254.440338765066	10
1	26	269.493821031322	11
1	28	286.282478089327	12
1	30	338.247559806306	13
1	32	339.721266915608	14
1	34	341.544487438094	15
1	36	341.952999206075	16
1	38	377.702752474848	17
1	40	407.818437647596	18
1	42	448.624722806434	19
1	44	525.529160189271	20
1	46	557.633951330501	20
1	48	570.012540523035	20
1	50	592.73131935724	20
1	52	613.159956844224	20
1	54	628.57665001357	20
1	56	643.333195848688	20
1	58	656.167089889311	20
1	61	680.033974244563	19
1	63	680.033974244563	19
1	64	681.033974244563	20
1	66	685.932186404345	20
1	68	690.813156219075	20
1	70	691.192527603097	20
1	72	694.435257392016	20
1	74	713.626216939381	20
1	77	738.308090721885	19
1	79	738.308090721885	19
1	80	739.308090721885	20
1	82	760.204484423665	20
1	84	769.114854324689	20
1	87	786.431427828871	19
1	89	786.431427828871	19
1	90	787.431427828871	20
1	92	815.641875558576	20
1	94	816.884181367904	20
1	96	838.060863997656	20
1	98	842.78499811931	20
1	100	870.56585191513	20
1	102	879.607893119622	20
1	104	880.391556247884	20
1	107	964.341951035648	19
1	109	964.341951035648	19
1	110	965.341951035648	20
1	113	965.882027710415	19
1	115	965.882027710415	19
1	116	966.882027710415	20
1	118	969.481493171405	20
1	120	990.63802143845	20
1	122	994.156292346962	20
1	124	1011.594609419477	20
1	126	1024.1534410393	20
1	128	1043.690722520714	20
1	130	1046.029830716563	20
1	132	1053.660947584047	20
1	134	1058.038559514193	20
1	136	1079.763947131759	20
1	139	1080.561660152311	19
1	141	1080.561660152311	19
1	142	1081.561660152311	20
1	144	1081.806844762258	20
1	146	1104.203132077337	20
1	149	1168.385116849158	19
1	151	1168.385116849158	19
1	153	1168.599646265461	18
1	154	1169.385116849158	19
1	157	1169.385116849158	19
1	158	1170.385116849158	20
1	160	1179.183761269027	20
1	163	1184.25209431794	19
1	165	1184.25209431794	19
1	166	1185.25209431794	20
1	168	1193.435433135691	20
1	170	1212.005003073719	20
1	172	1212.408805636642	20
1	174	1219.057010455916	20
1	176	1227.965399694312	20
1	178	1230.493172422818	20
1	180	1272.977916362852	20
1	182	1274.303864392496	20
1	184	1290.960734713819	20
1	186	1297.129031515775	20
1	188	1346.840678655312	20
1	190	1363.998591476796	20
1	192	1370.505399787377	20
1	195	1392.065843264162	19
1	197	1392.065843264162	19
1	198	1392.522317989194	19
1	200	1393.065843264162	20
1	202	1413.357931072783	20
1	204	1420.191014413305	20
1	206	1430.335016878437	20
1	208	1430.74126605435	20
1	210	1439.97588397524	20
1	213	1446.482442029316	19
1	215	1446.482442029316	19
1	216	1447.482442029316	20
1	218	1462.62856681469	20
1	220	1486.958739883422	20
1	222	1552.461603437717	20
1	224	1580.682091623605	20
1	226	1598.613909039323	20
1	229	1617.408699271094	19
1	231	1617.408699271094	19
1	232	1618.408699271094	20
1	234	1618.9870836397	20
1	237	1634.666294026862	19
1	239	1634.666294026862	19
1	240	1635.666294026862	20
1	242	1680.032716777386	20
1	245	1680.605671009871	19
1	247	1680.605671009871	19
1	248	1681.605671009871	20
1	250	1691.960304663977	20
1	252	1716.005076008907	20
1	254	1745.141447180191	20
1	256	1755.241822135284	20
1	258	1760.990031656684	20
1	260	1803.686640656348	20
1	262	1827.274299329241	20
1	265	1828.959637831453	19
1	267	1828.959637831453	19
1	268	1829.959637831453	20
1	270	1853.112484705254	20
1	272	1867.028473923263	20
1	274	1872.269618756772	20
1	276	1882.315834721991	20
1	279	1890.439553536033	19
1	281	1890.439553536033	19
1	282	1891.439553536033	20
1	284	1901.604906031869	20
1	286	1914.487000198321	20
1	288	1921.665544515717	20
1	290	1943.25194848883	20
1	292	1950.103940982792	20
1	294	1969.351442098212	20
1	296	1980.550663499692	20
1	298	1983.462143068649	20
1	300	1990.546625713558	20
1	303	2003.96993238621	19
1	305	2003.96993238621	19
1	306	2004.96993238621	20
1	308	2007.424395165375	20
1	310	2025.298976731485	20
1	312	2025.983045098646	20
1	314	2095.433754684295	20
1	316	2103.176356527277	20
1	318	2108.177986426831	20
1	320	2111.22385893192	20
1	322	2113.270271228971	20
1	324	2196.026466439179	20
1	326	2202.057784703646	20
1	328	2217.459321894571	20
1	331	2221.84700239266	19
1	333	2221.84700239266	19
1	334	2222.84700239266	20
1	336	2229.340791861047	20
1	338	2231.438428573054	20
1	340	2256.490579071288	20
1	343	2326.88513078367	19
1	345	2326.88513078367	19
1	346	2327.88513078367	20
1	349	2357.609578904682	19
1	351	2357.609578904682	19
1	352	2358.609578904682	20
1	354	2391.79838947003	20
1	356	2395.035791204276	20
1	358	2395.801449461971	20
1	360	2414.920777940419	20
1	362	2417.564452132713	20
1	364	2455.243029864434	20
1	366	2488.177411890971	20
1	368	2505.015031125611	20
1	370	2515.472431727379	20
1	372	2516.905939413637	20
1	374	2540.814710739281	20
1	376	2552.900692176233	20
1	378	2578.507376252481	20
1	380	2618.762830976598	20
1	383	2682.98758695112	19
1	385	2682.98758695112	19
1	386	2683.98758695112	20
1	388	2692.962042814673	20
1	390	2731.693587564498	20
1	392	2760.649469204268	20
1	395	2803.097183903266	19
1	397	2803.097183903266	19
1	398	2804.097183903266	20
1	400	2818.341704246317	20
1	402	2846.067531286741	20
1	404	2860.790153286473	20
1	406	2861.907554344243	20
1	408	2866.370338506259	20
1	410	2866.744247914678	20
1	412	2898.312502356797	20
1	414	2903.382616459665	20
1	417	2904.978538101467	19
1	419	2904.978538101467	19
1	420	2905.978538101467	20
1	422	2911.8557584868	20
1	424	2964.500135737775	20
1	426	2982.659416284266	20
1	428	3013.276040809613	20
1	430	3027.140036200364	20
1	432	3028.173694316273	20
1	435	3035.487733931042	19
1	437	3035.487733931042	19
1	438	3036.487733931042	20
1	440	3052.193112447112	20
1	443	3097.65986217908	19
1	445	3097.65986217908	19
1	446	3098.65986217908	20
1	448	3149.775770206982	20
1	450	3168.812364357825	20
1	452	3208.755803707625	20
1	455	3225.83991769929	19
1	457	3225.83991769929	19
1	458	3226.83991769929	20
1	460	3236.549344983135	20
1	463	3264.420499349984	19
1	465	3264.420499349984	19
1	466	3265.420499349984	20
1	468	3303.30803166021	20
1	470	3313.465334113944	20
1	472	3318.497306376202	20
1	474	3323.434491752178	20
1	476	3340.294067260466	20
1	479	3344.756544320992	19
1	481	3344.756544320992	19
1	482	3345.756544320992	20
1	484	3352.327646990954	20
1	487	3372.406196895352	19
1	489	3372.406196895352	19
1	490	3373.406196895352	20
1	493	3397.793338356411	19
1	495	3397.793338356411	19
1	496	3398.793338356411	20
1	498	3422.617220601687	20
1	500	3428.487373640152	20
1	502	3429.648820882471	20
1	504	3437.12221677036	20
1	507	3441.462398154933	19
1	509	3441.462398154933	19
1	510	3442.462398154933	20
1	512	3460.959378843458	20
1	514	3470.447704650117	20
1	516	3486.087219067629	20
1	518	3524.654421805227	20
1	521	3538.469338762369	19
1	523	3538.469338762369	19
1	524	3539.469338762369	20
1	526	3551.893056291339	20
1	529	3556.364682382397	19
1	531	3556.364682382397	19
1	532	3557.364682382397	20
1	535	3562.232693812032	19
1	537	3562.232693812032	19
1	538	3563.232693812032	20
1	540	3564.917670929691	20
1	543	3572.907449172224	19
1	545	3572.907449172224	19
1	546	3573.907449172224	20
1	548	3580.30006695162	20
1	551	3593.312235501196	19
1	553	3593.312235501196	19
1	554	3594.312235501196	20
1	556	3605.38413235344	20
1	558	3610.273952794298	20
1	561	3613.438628974774	19
1	563	3613.438628974774	19
1	564	3614.438628974774	20
1	566	3657.652316211038	20
1	568	3658.069660583241	20
1	571	3666.2695738061	19
1	573	3666.2695738061	19
1	574	3667.2695738061	20
1	577	3679.658817731189	19
1	579	3679.658817731189	19
1	580	3680.658817731189	20
1	582	3700.740926332739	20
1	585	3721.331934318503	19
1	587	3721.331934318503	19
1	588	3722.331934318503	20
1	590	3747.697801561326	20
1	592	3765.447840131	20
1	594	3780.115193594359	20
1	596	3821.331618411976	20
1	598	3827.723111509433	20
1	601	3834.59971003257	19
1	603	3834.59971003257	19
1	604	3835.59971003257	20
1	606	3859.717500346234	20
1	608	3863.824455720948	20
1	610	3876.005347975125	20
1	612	3889.215409570109	20
1	615	3890.514955773014	19
1	617	3890.514955773014	19
1	618	3891.514955773014	20
1	620	3920.308668326285	20
1	622	3925.521470913814	20
1	624	3931.380500083546	20
1	626	3936.178970472272	20
1	628	3950.783523777053	20
1	630	3951.303478680915	20
1	632	3955.953979048611	20
1	634	3967.010746461647	20
1	636	3976.384275981185	20
1	638	3988.840862176483	20
1	640	3995.345182536009	20
1	642	4013.020895656667	20
1	644	4052.901679682207	20
1	646	4055.402331480677	20
1	648	4069.972808335364	20
1	650	4072.805649031268	20
1	652	4098.041902501013	20
1	654	4108.127501166043	20
1	657	4122.230711447536	19
1	659	4122.230711447536	19
1	660	4123.230711447536	20
1	662	4124.795065978961	20
1	664	4128.844241252923	20
1	666	4132.449727244489	20
1	668	4135.116539709941	20
1	670	4160.725026789517	20
1	672	4161.343552620727	20
1	674	4188.830412909135	20
1	676	4190.773766476476	20
1	678	4195.677728329322	20
1	680	4223.344057652345	20
1	682	4249.656582818282	20
1	684	4250.590337691172	20
1	686	4255.283454676301	20
1	689	4257.46566506364	19
1	691	4257.46566506364	19
1	692	4258.46566506364	20
1	694	4262.04654897319	20
1	697	4275.511516579809	19
1	699	4275.511516579809	19
1	700	4276.511516579809	20
1	702	4284.664918556964	20
1	704	4284.996240445396	20
1	706	4285.181900932956	20
1	709	4299.386534692466	19
1	711	4299.386534692466	19
1	712	4300.386534692466	20
1	714	4320.981693022579	20
1	716	4404.101114933842	20
1	718	4421.758725832984	20
1	720	4423.080566046852	20
1	723	4432.698384791053	19
1	725	4432.698384791053	19
1	726	4433.698384791053	20
1	729	4436.036220216495	19
1	731	4436.036220216495	19
1	732	4436.376721037883	19
1	734	4437.036220216495	20
1	736	4512.257196699638	20
1	738	4530.909433805015	20
1	740	4596.087853348708	20
1	742	4601.359395605412	20
1	745	4653.811845126112	19
1	747	4653.811845126112	19
1	748	4654.811845126112	20
1	750	4661.003409114864	20
1	753	4685.123810680909	19
1	755	4685.123810680909	19
1	756	4686.123810680909	20
1	758	4717.736212982374	20
1	760	4731.053062715114	20
1	762	4772.528291977115	20
1	764	4779.46335805289	20
1	766	4817.265392014816	20
1	768	4836.505630546617	20
1	770	4836.772135443185	20
1	772	4845.302851683915	20
1	774	4848.509533573647	20
1	776	4928.668526671134	20
1	778	4941.684473518317	20
1	780	4955.443343087537	20
1	782	4975.847084846633	20
1	784	4985.042911202149	20
1	786	4987.987411948411	20
1	789	4990.794920069944	19
1	791	4990.794920069944	19
1	792	4991.794920069944	20
1	794	5022.520079543256	20
1	796	5026.730745307338	20
1	798	5029.302350052863	20
1	800	5108.255015404043	20
1	802	5118.676591825738	20
1	804	5135.519317882484	20
1	806	5143.939183843464	20
1	808	5175.045071050554	20
1	810	5185.644302635994	20
1	812	5194.547289424122	20
1	815	5197.645879636291	19
1	817	5197.645879636291	19
1	818	5198.645879636291	20
1	820	5204.74710610111	20
1	823	5207.117652522514	19
1	825	5207.117652522514	19
1	826	5208.117652522514	20
1	829	5208.343747898427	19
1	831	5208.343747898427	19
1	832	5209.343747898427	20
1	834	5211.932984203632	20
1	836	5217.218393486347	20
1	838	5225.088441708801	20
1	840	5250.951398884716	20
1	842	5251.181263888886	20
1	844	5280.625347048759	20
1	846	5283.804010641882	20
1	848	5285.461256100252	20
1	851	5287.123442109949	19
1	853	5287.123442109949	19
1	854	5287.338747045904	19
1	856	5288.123442109949	20
1	858	5309.636495484044	20
1	861	5316.24897364256	19
1	863	5316.24897364256	19
1	864	5317.24897364256	20
1	866	5320.954386316741	20
1	868	5348.851768142004	20
1	870	5388.252919453853	20
1	873	5396.490513319481	19
1	875	5396.490513319481	19
1	876	5397.490513319481	20
1	879	5403.476998438419	19
1	881	5403.476998438419	19
1	882	5404.476998438419	20
1	884	5414.221832165947	20
1	886	5420.525032740263	20
1	888	5438.451616840673	20
1	890	5445.630843208207	20
1	892	5451.710274392784	20
1	894	5463.891563499256	20
1	896	5486.886391254252	20
1	898	5510.676316280951	20
1	900	5517.34438304846	20
1	902	5526.902742798683	20
1	904	5530.899853557097	20
1	906	5561.974763597741	20
2	1	0	0.05
2	3	25.118615160948	0.1
2	5	43.583077790364	0.15
2	7	59.327100590002	0.2
2	9	70.348070323408	0.25
2	11	91.111256336685	0.3
2	13	102.621640274345	0.35
2	15	147.092128715071	0.4
2	17	213.390374313637	0.45
2	19	223.062416412606	0.5
2	22	252.184533082618	0.45
2	24	254.440338765066	0.5
2	26	269.493821031322	0.55
2	28	286.282478089327	0.6
2	30	338.247559806306	0.65
2	32	339.721266915608	0.7
2	34	341.544487438094	0.75
2	36	341.952999206075	0.8
2	38	377.702752474848	0.85
2	40	407.818437647596	0.9
2	42	448.624722806434	0.95
2	44	525.529160189271	1
2	46	557.633951330501	1
2	48	570.012540523035	1
2	50	592.73131935724	1
2	52	613.159956844224	1
2	54	628.57665001357	1
2	56	643.333195848688	1
2	58	656.167089889311	1
2	61	680.033974244563	0.95
2	63	680.033974244563	0.95
2	64	681.033974244563	1
2	66	685.932186404345	1
2	68	690.813156219075	1
2	70	691.192527603097	1
2	72	694.435257392016	1
2	74	713.626216939381	1
2	77	738.308090721885	0.95
2	79	738.308090721885	0.95
2	80	739.308090721885	1
2	82	760.204484423665	1
2	84	769.114854324689	1
2	87	786.431427828871	0.95
2	89	786.431427828871	0.95
2	90	787.431427828871	1
2	92	815.641875558576	1
2	94	816.884181367904	1
2	96	838.060863997656	1
2	98	842.78499811931	1
2	100	870.56585191513	1
2	102	879.607893119622	1
2	104	880.391556247884	1
2	107	964.341951035648	0.95
2	109	964.341951035648	0.95
2	110	965.341951035648	1
2	113	965.882027710415	0.95
2	115	965.882027710415	0.95
2	116	966.882027710415	1
2	118	969.481493171405	1
2	120	990.63802143845	1
2	122	994.156292346962	1
2	124	1011.594609419477	1
2	126	1024.1534410393	1
2	128	1043.690722520714	1
2	130	1046.029830716563	1
2	132	1053.660947584047	1
2	134	1058.038559514193	1
2	136	1079.763947131759	1
2	139	1080.561660152311	0.95
2	141	1080.561660152311	0.95
2	142	1081.561660152311	1
2	144	1081.806844762258	1
2	146	1104.203132077337	1
2	149	1168.385116849158	0.95
2	151	1168.385116849158	0.95
2	153	1168.599646265461	0.9
2	154	1169.385116849158	0.95
2	157	1169.385116849158	0.95
2	158	1170.385116849158	1
2	160	1179.183761269027	1
2	163	1184.25209431794	0.95
2	165	1184.25209431794	0.95
2	166	1185.25209431794	1
2	168	1193.435433135691	1
2	170	1212.005003073719	1
2	172	1212.408805636642	1
2	174	1219.057010455916	1
2	176	1227.965399694312	1
2	178	1230.493172422818	1
2	180	1272.977916362852	1
2	182	1274.303864392496	1
2	184	1290.960734713819	1
2	186	1297.129031515775	1
2	188	1346.840678655312	1
2	190	1363.998591476796	1
2	192	1370.505399787377	1
2	195	1392.065843264162	0.95
2	197	1392.065843264162	0.95
2	198	1392.522317989194	0.95
2	200	1393.065843264162	1
2	202	1413.357931072783	1
2	204	1420.191014413305	1
2	206	1430.335016878437	1
2	208	1430.74126605435	1
2	210	1439.97588397524	1
2	213	1446.482442029316	0.95
2	215	1446.482442029316	0.95
2	216	1447.482442029316	1
2	218	1462.62856681469	1
2	220	1486.958739883422	1
2	222	1552.461603437717	1
2	224	1580.682091623605	1
2	226	1598.613909039323	1
2	229	1617.408699271094	0.95
2	231	1617.408699271094	0.95
2	232	1618.408699271094	1
2	234	1618.9870836397	1
2	237	1634.666294026862	0.95
2	239	1634.666294026862	0.95
2	240	1635.666294026862	1
2	242	1680.032716777386	1
2	245	1680.605671009871	0.95
2	247	1680.605671009871	0.95
2	248	1681.605671009871	1
2	250	1691.960304663977	1
2	252	1716.005076008907	1
2	254	1745.141447180191	1
2	256	1755.241822135284	1
2	258	1760.990031656684	1
2	260	1803.686640656348	1
2	262	1827.274299329241	1
2	265	1828.959637831453	0.95
2	267	1828.959637831453	0.95
2	268	1829.959637831453	1
2	270	1853.112484705254	1
2	272	1867.028473923263	1
2	274	1872.269618756772	1
2	276	1882.315834721991	1
2	279	1890.439553536033	0.95
2	281	1890.439553536033	0.95
2	282	1891.439553536033	1
2	284	1901.604906031869	1
2	286	1914.487000198321	1
2	288	1921.665544515717	1
2	290	1943.25194848883	1
2	292	1950.103940982792	1
2	294	1969.351442098212	1
2	296	1980.550663499692	1
2	298	1983.462143068649	1
2	300	1990.546625713558	1
2	303	2003.96993238621	0.95
2	305	2003.96993238621	0.95
2	306	2004.96993238621	1
2	308	2007.424395165375	1
2	310	2025.298976731485	1
2	312	2025.983045098646	1
2	314	2095.433754684295	1
2	316	2103.176356527277	1
2	318	2108.177986426831	1
2	320	2111.22385893192	1
2	322	2113.270271228971	1
2	324	2196.026466439179	1
2	326	2202.057784703646	1
2	328	2217.459321894571	1
2	331	2221.84700239266	0.95
2	333	2221.84700239266	0.95
2	334	2222.84700239266	1
2	336	2229.340791861047	1
2	338	2231.438428573054	1
2	340	2256.490579071288	1
2	343	2326.88513078367	0.95
2	345	2326.88513078367	0.95
2	346	2327.88513078367	1
2	349	2357.609578904682	0.95
2	351	2357.609578904682	0.95
2	352	2358.609578904682	1
2	354	2391.79838947003	1
2	356	2395.035791204276	1
2	358	2395.801449461971	1
2	360	2414.920777940419	1
2	362	2417.564452132713	1
2	364	2455.243029864434	1
2	366	2488.177411890971	1
2	368	2505.015031125611	1
2	370	2515.472431727379	1
2	372	2516.905939413637	1
2	374	2540.814710739281	1
2	376	2552.900692176233	1
2	378	2578.507376252481	1
2	380	2618.762830976598	1
2	383	2682.98758695112	0.95
2	385	2682.98758695112	0.95
2	386	2683.98758695112	1
2	388	2692.962042814673	1
2	390	2731.693587564498	1
2	392	2760.649469204268	1
2	395	2803.097183903266	0.95
2	397	2803.097183903266	0.95
2	398	2804.097183903266	1
2	400	2818.341704246317	1
2	402	2846.067531286741	1
2	404	2860.790153286473	1
2	406	2861.907554344243	1
2	408	2866.370338506259	1
2	410	2866.744247914678	1
2	412	2898.312502356797	1
2	414	2903.382616459665	1
2	417	2904.978538101467	0.95
2	419	2904.978538101467	0.95
2	420	2905.978538101467	1
2	422	2911.8557584868	1
2	424	2964.500135737775	1
2	426	2982.659416284266	1
2	428	3013.276040809613	1
2	430	3027.140036200364	1
2	432	3028.173694316273	1
2	435	3035.487733931042	0.95