version 3
run HighDemand-0-20250610-16:26:14-8296
attr configname HighDemand
attr datetime 20250610-16:26:14
attr datetimef 20250610-162614
attr experiment HighDemand
attr inifile omnetpp.ini
attr iterationvars ""
attr iterationvarsd ""
attr iterationvarsf ""
attr measurement ""
attr network smartparkingsystem.SmartParkingNetwork
attr processid 8296
attr repetition 0
attr replication #0
attr resultdir results
attr runnumber 0
attr seedset 0
config description "High demand scenario with short parking times"
config **.parkingLot.numSlots 20
config **.parkingLot.arrivalRate 0.1
config **.parkingLot.avgParkingDuration 1200.0
config **.queue.maxQueueSize 75
config network smartparkingsystem.SmartParkingNetwork
config sim-time-limit 7200s
config seed-set 0
config **.parkingLot.numSlots 20
config **.parkingLot.arrivalRate 0.05
config **.parkingLot.avgParkingDuration 1800.0
config **.parkingLot.simulationTime 7200.0
config **.parkingLot.sensorMalfunctionRate 0.001
config **.parkingLot.sensorRepairTime 300.0
config **.queue.maxQueueSize 50
config **.queue.displayStrings "\"i=block/queue;is=l\""
config **.controller.displayStrings "\"i=block/control;is=l\""
config **.slot[*].displayStrings "\"i=misc/square;is=l\""
config output-vector-file results/HighDemand-0.vec
config output-scalar-file results/HighDemand-0.sca
config repeat 10

vector 0 SmartParkingNetwork.parkingLot vehicleArrival:vector ETV
attr recordingmode vector
attr title "Vehicle Arrivals"
vector 1 SmartParkingNetwork.parkingLot occupiedSlots:vector ETV
attr recordingmode vector
attr title "Occupied Slots"
vector 2 SmartParkingNetwork.parkingLot utilizationRate:vector ETV
attr recordingmode vector
attr title "Utilization Rate"
vector 3 SmartParkingNetwork.parkingLot.slot[0] slotOccupied:vector ETV
attr recordingmode vector
attr title "Slot Occupied"
vector 4 SmartParkingNetwork.parkingLot.slot[1] slotOccupied:vector ETV
attr recordingmode vector
attr title "Slot Occupied"
vector 5 SmartParkingNetwork.parkingLot.slot[2] slotOccupied:vector ETV
attr recordingmode vector
attr title "Slot Occupied"
vector 6 SmartParkingNetwork.parkingLot.slot[3] slotOccupied:vector ETV
attr recordingmode vector
attr title "Slot Occupied"
vector 7 SmartParkingNetwork.parkingLot.slot[4] slotOccupied:vector ETV
attr recordingmode vector
attr title "Slot Occupied"
vector 8 SmartParkingNetwork.parkingLot.slot[5] slotOccupied:vector ETV
attr recordingmode vector
attr title "Slot Occupied"
vector 9 SmartParkingNetwork.parkingLot.slot[6] slotOccupied:vector ETV
attr recordingmode vector
attr title "Slot Occupied"
vector 10 SmartParkingNetwork.parkingLot.slot[7] slotOccupied:vector ETV
attr recordingmode vector
attr title "Slot Occupied"
vector 11 SmartParkingNetwork.parkingLot.slot[8] slotOccupied:vector ETV
attr recordingmode vector
attr title "Slot Occupied"
vector 12 SmartParkingNetwork.parkingLot.slot[9] slotOccupied:vector ETV
attr recordingmode vector
attr title "Slot Occupied"
vector 13 SmartParkingNetwork.parkingLot.slot[10] slotOccupied:vector ETV
attr recordingmode vector
attr title "Slot Occupied"
vector 14 SmartParkingNetwork.parkingLot.slot[11] slotOccupied:vector ETV
attr recordingmode vector
attr title "Slot Occupied"
vector 15 SmartParkingNetwork.parkingLot.slot[12] slotOccupied:vector ETV
attr recordingmode vector
attr title "Slot Occupied"
vector 16 SmartParkingNetwork.parkingLot vehicleDeparture:vector ETV
attr recordingmode vector
attr title "Vehicle Departures"
vector 17 SmartParkingNetwork.parkingLot waitingTime:vector ETV
attr recordingmode vector
attr title "Waiting Time"
vector 18 SmartParkingNetwork.parkingLot.slot[13] slotOccupied:vector ETV
attr recordingmode vector
attr title "Slot Occupied"
vector 19 SmartParkingNetwork.parkingLot.slot[14] slotOccupied:vector ETV
attr recordingmode vector
attr title "Slot Occupied"
vector 20 SmartParkingNetwork.parkingLot.slot[15] slotOccupied:vector ETV
attr recordingmode vector
attr title "Slot Occupied"
vector 21 SmartParkingNetwork.parkingLot.slot[16] slotOccupied:vector ETV
attr recordingmode vector
attr title "Slot Occupied"
vector 22 SmartParkingNetwork.parkingLot.slot[17] slotOccupied:vector ETV
attr recordingmode vector
attr title "Slot Occupied"
vector 23 SmartParkingNetwork.parkingLot.slot[18] slotOccupied:vector ETV
attr recordingmode vector
attr title "Slot Occupied"
vector 24 SmartParkingNetwork.parkingLot.slot[19] slotOccupied:vector ETV
attr recordingmode vector
attr title "Slot Occupied"
vector 25 SmartParkingNetwork.parkingLot.queue queueLength:vector ETV
attr recordingmode vector
attr title "Queue Length"
vector 26 SmartParkingNetwork.parkingLot queueLength:vector ETV
attr recordingmode vector
attr title "Queue Length"
vector 27 SmartParkingNetwork.parkingLot.queue vehicleQueued:vector ETV
attr recordingmode vector
attr title "Vehicles Queued"
vector 28 SmartParkingNetwork.parkingLot.queue vehicleDequeued:vector ETV
attr recordingmode vector
attr title "Vehicles Dequeued"
0	1	0	0
0	3	12.559307580474	1
0	5	21.791538895182	2
0	7	29.663550295001	3
0	9	35.174035161704	4
0	11	45.555628168343	5
0	13	51.310820137173	6
0	15	73.546064357536	7
0	17	106.695187156819	8
0	19	111.531208206303	9
0	21	127.220169382533	10
0	23	134.746910515661	11
0	25	143.141239044663	12
0	30	169.123779903153	13
0	32	169.860633457804	14
0	34	170.772243719047	15
0	36	170.976499603038	16
0	38	188.851376237425	17
0	40	203.909218823799	18
0	42	224.312361403218	19
0	44	262.764580094636	20
0	46	278.816975665251	21
0	48	285.006270261518	22
0	50	296.36565967862	23
0	52	306.579978422112	24
0	54	314.288325006785	25
0	56	321.666597924344	26
0	58	328.083544944655	27
0	60	342.966093202172	28
0	62	345.406578109537	29
0	64	345.596263801548	30
0	66	347.217628696008	31
0	68	356.81310846969	32
0	70	380.102242211832	33
0	72	384.557427162344	34
0	80	407.820937779287	35
0	82	408.442090683951	36
0	84	419.030431998827	37
0	86	421.392499059654	38
0	88	435.282925957564	39
0	90	439.80394655981	40
0	92	440.195778123941	41
0	100	484.740746585702	42
0	108	495.319010719224	43
0	110	497.07814617348	44
0	112	505.797304709737	45
0	114	512.076720519649	46
0	116	521.845361260356	47
0	118	523.014915358281	48
0	120	526.830473792023	49
0	122	529.019279757096	50
0	124	539.881973565879	51
0	126	540.903422381128	52
0	128	552.101566038667	53
0	130	589.591880634512	54
0	132	596.717716567844	55
0	134	606.002501536858	56
0	136	606.20440281832	57
0	138	609.528505227957	58
0	140	613.982699847155	59
0	142	615.246586211408	60
0	150	636.488958181425	61
0	152	637.151932196247	62
0	154	645.480367356909	63
0	156	648.564515757887	64
0	164	673.420339327655	65
0	166	681.999295738397	66
0	168	685.252699893687	67
0	170	696.261158994595	68
0	178	706.67896553639	69
0	180	710.095507206651	70
0	182	715.167508439217	71
0	184	715.370633027173	72
0	186	719.987941987618	73
0	194	731.314283407343	74
0	202	743.479369941709	75
0	204	776.230801718857	76
0	206	790.341045811801	77
0	208	799.30695451966	78
0	210	809.493541819848	79
0	212	840.016358388691	80
0	214	845.942598663213	81
0	216	864.677197461785	82
0	224	876.69958313425	83
0	226	880.229784466992	84
0	228	885.537009433157	85
0	236	896.789829601594	86
0	238	899.663934362294	87
0	246	921.012238862126	88
0	248	932.806068198572	89
0	250	943.584417039936	90
0	252	951.203094752895	91
0	254	953.823667169649	92
0	256	958.846775152258	93
0	258	968.491310807197	94
0	260	974.932357890423	95
0	262	981.283635046731	96
0	264	993.87407021937	97
0	266	997.270717545194	98
0	268	1002.107074411088	99
0	270	1015.936866476456	100
0	278	1037.01134252596	101
0	280	1038.096813510909	102
0	282	1046.535698236818	103
0	284	1055.472989019873	104
0	286	1064.013786376303	105
0	288	1074.603880230115	106
0	296	1085.162376316712	107
0	298	1090.80848132792	108
0	300	1092.331417580465	109
0	302	1093.354623728991	110
0	304	1134.732721334095	111
0	306	1137.748380466328	112
0	308	1145.449149061791	113
0	310	1151.389884045029	114
0	312	1152.438702401033	115
0	314	1156.782158960471	116
0	316	1163.116785137698	117
0	318	1181.514112988473	118
0	320	1205.01588588598	119
0	322	1205.398715014828	120
0	330	1212.497894287068	121
0	332	1214.323280305894	122
0	334	1233.162569171755	123
0	336	1249.629760185023	124
0	344	1258.048569802343	125
0	346	1263.277270103227	126
0	348	1303.775738491273	127
0	350	1308.448464155372	128
0	352	1313.897035436819	129
0	354	1314.416160958649	130
0	356	1318.965279406566	131
0	358	1319.132957066488	132
0	360	1321.75625015815	133
0	362	1336.234190978035	134
0	364	1365.08030849906	135
0	366	1378.943222019272	136
0	368	1383.089347445863	137
0	370	1389.813952614199	138
0	372	1393.953741840926	139
0	374	1395.932036915517	140
0	376	1397.807226427544	141
0	378	1404.033199867328	142
0	384	1424.793510471756	143
0	388	1453.638953355824	144
0	390	1465.826921389258	145
0	392	1466.150489435711	146
0	394	1467.950062851229	147
0	396	1477.664884432178	148
0	398	1486.274120798985	149
0	400	1488.990801502408	150
0	402	1516.204284061538	151
0	404	1525.72258113696	152
0	406	1533.393377682683	153
0	408	1542.307163451783	154
0	410	1555.4050171654	155
0	412	1559.143882124431	156
0	414	1564.222533351298	157
0	416	1566.577779085483	158
0	418	1568.638099570313	159
0	426	1597.528855489301	160
0	428	1610.98232982164	161
0	430	1646.127116627007	162
0	432	1657.538495655601	163
0	434	1658.430038555553	164
0	436	1659.010762176713	165
0	438	1665.701899413612	166
0	440	1686.988600358927	167
0	448	1724.45554649718	168
0	450	1734.069942212892	169
0	452	1734.31982574602	170
0	454	1735.016002456756	171
0	456	1746.391387512162	172
0	458	1752.437199695514	173
0	460	1760.128397706478	174
0	462	1782.826797864319	175
0	470	1829.223323128056	176
0	472	1831.668233348485	177
0	474	1855.357415056855	178
0	476	1856.833375385767	179
0	478	1859.436889501239	180
0	480	1880.772522375988	181
0	482	1904.250959990282	182
0	484	1914.629460745174	183
0	486	1918.555191027049	184
0	488	1925.888867758729	185
0	490	1925.88942127768	186
0	492	1929.627054215845	187
0	494	1935.168762506326	188
0	496	1956.826399315072	189
0	498	1968.2169758218	190
0	500	1974.307421948889	191
0	502	1980.912452746381	192
0	504	1996.459082124469	193
0	506	1999.065483418233	194
0	508	2020.292949957652	195
0	510	2024.057243472866	196
0	512	2055.628198887022	197
0	520	2062.010084942951	198
0	522	2074.443592722437	199
0	524	2079.971976428955	200
0	526	2084.658741188724	201
0	528	2090.887034286373	202
0	530	2094.139194466136	203
0	532	2102.977051026465	204
0	534	2122.917443039235	205
0	536	2124.16776893847	206
0	538	2131.453007365813	207
0	540	2132.869427713765	208
0	548	2145.487554448638	209
0	550	2150.530353781153	210
0	552	2168.882987810548	211
0	554	2171.175431062618	212
0	556	2172.978174058401	213
0	558	2174.311580291127	214
0	560	2187.115823830915	215
0	562	2187.42508674652	216
0	564	2201.168516890724	217
0	566	2202.140193674394	218
0	568	2204.592174600817	219
0	570	2218.425339262329	220
0	572	2231.581601845298	221
0	574	2232.048479281743	222
0	576	2234.395037774308	223
0	578	2237.776584922752	224
0	586	2249.085769714639	225
0	588	2249.736898362506	226
0	596	2276.262483517711	227
0	604	2287.346581059851	228
0	606	2328.906292015482	229
0	608	2337.735097465053	230
0	610	2338.396017571987	231
0	618	2345.044095067503	232
0	632	2382.984332898381	233
0	634	2392.31045145107	234
0	642	2424.899661222917	235
0	644	2446.008548966745	236
0	646	2474.3749509005	237
0	648	2490.429538531178	238
0	650	2500.384174964845	239
0	658	2521.121789595846	240
0	660	2524.589322633734	241
0	662	2526.750284799676	242
0	664	2541.592709626177	243
0	666	2578.189282933826	244
0	674	2598.01677197986	245
0	676	2613.17746127811	246
0	678	2619.685434701701	247
0	680	2626.564869486311	248
0	682	2636.766740365859	249
0	684	2641.364653543617	250
0	686	2642.836903916748	251
0	688	2660.10323771417	252
0	696	2662.208570596211	253
0	704	2669.369023776147	254
0	718	2708.845356451737	255
0	720	2728.664259862826	256
0	722	2732.874192843316	257
0	724	2756.578068649456	258
0	726	2771.452366192853	259
0	728	2775.504195016277	260
0	730	2776.349989933896	261
0	732	2781.579666470454	262
0	734	2784.222371111811	263
0	736	2785.643626225738	264
0	738	2786.192699951249	265
0	746	2799.124178539207	266
0	748	2799.239111041292	267
0	750	2802.87153323031	268
0	758	2824.315387875443	269
0	760	2827.200514978924	270
0	762	2838.349389197994	271
0	764	2841.164629422704	272
0	766	2846.621206570377	273
0	774	2854.77138987934	274
0	776	2874.471965535264	275
0	778	2875.487306374679	276
0	780	2878.44632510716	277
0	788	2887.409617157365	278
0	790	2893.881364197796	279
0	792	2896.921079790085	280
0	794	2903.011724343321	281
0	796	2914.509138220819	282
0	798	2926.404100734168	283
0	800	2929.738134117922	284
0	802	2934.517313993033	285
0	804	2936.51586937224	286
0	806	2952.053324392562	287
0	808	2952.638603382027	288
0	810	2964.578737087979	289
0	812	2979.660889404249	290
0	814	2994.685017341357	291
0	816	2997.688268144214	292
0	818	3002.369332676562	293
0	820	3011.226939136861	294
0	822	3014.412777615652	295
0	824	3019.046677891052	296
0	826	3021.24135949999	297
0	828	3027.400552337832	298
0	830	3027.856932832787	299
0	832	3043.941111323646	300
0	834	3044.741899883086	301
0	836	3052.057353274413	302
0	838	3055.721866192739	303
0	840	3064.338541110691	304
0	848	3096.386629406808	305
0	856	3106.759080347836	306
0	858	3122.067564537269	307
0	866	3129.201407365277	308
0	868	3136.883940783951	309
0	870	3147.366831833512	310
0	872	3155.115255628552	311
0	874	3159.055831348022	312
0	876	3160.645951516017	313
0	878	3162.387938681848	314
0	880	3163.773806896079	315
0	882	3172.423187990371	316
0	884	3173.391162713452	317
0	886	3197.531327018532	318
0	888	3198.397496963	319
0	890	3214.510816954205	320
0	892	3235.47717968943	321
0	894	3236.458374915719	322
0	896	3242.014964047301	323
0	898	3248.42469949994	324
0	900	3257.104399320119	325
0	902	3269.700811026356	326
0	904	3269.975232030658	327
0	906	3283.1204530115	328
0	908	3297.686055127257	329
0	910	3297.784199491239	330
0	912	3301.470028887346	331
0	914	3304.120959901414	332
0	916	3311.121216262568	333
0	918	3341.851968490421	334
0	920	3350.012154130069	335
0	922	3351.037673060104	336
0	924	3360.757781970724	337
0	932	3380.637176519164	338
0	934	3382.352562792892	339
0	936	3399.254912340477	340
0	938	3400.991477972561	341
0	940	3410.904273030154	342
0	942	3415.986467570682	343
0	944	3416.63412449858	344
0	946	3422.151160624484	345
0	952	3425.144444448668	346
0	956	3444.051735992982	347
0	958	3447.718787530923	348
0	960	3448.994523268895	349
0	962	3454.862211335695	350
0	964	3459.834304199121	351
0	966	3467.423951941607	352
0	968	3486.090356643414	353
0	970	3493.774982417324	354
0	978	3505.177771186515	355
0	980	3514.572791045147	356
0	988	3534.935732917867	357
0	990	3540.990070734269	358
0	992	3541.895145435752	359
0	994	3544.602389343124	360
0	996	3562.897810901711	361
0	1004	3570.287011101103	362
0	1006	3577.483460077988	363
0	1008	3578.188479561593	364
0	1010	3581.091213712826	365
0	1012	3583.590721879324	366
0	1014	3586.510182596612	367
0	1016	3587.914939766162	368
0	1018	3588.036032216778	369
0	1020	3589.263182289948	370
0	1022	3598.89910925284	371
0	1024	3635.494730437457	372
0	1038	3681.897530396955	373
0	1040	3687.157838354556	374
0	1042	3704.967185103471	375
0	1044	3711.706619545658	376
0	1046	3757.184858064257	377
0	1048	3757.860199633028	378
0	1050	3773.149588340147	379
0	1052	3776.551960536282	380
0	1054	3779.315012465557	381
0	1056	3790.17704557713	382
0	1058	3793.001512696713	383
0	1060	3803.963438306807	384
0	1062	3811.247214037134	385
0	1064	3816.765235253516	386
0	1066	3824.855032204844	387
0	1068	3828.238493391831	388
0	1070	3840.499815514167	389
0	1072	3845.858803467562	390
0	1074	3850.330202493536	391
0	1076	3867.971076415422	392
0	1084	3893.869337870394	393
0	1086	3894.340330580949	394
0	1088	3900.302049494917	395
0	1090	3927.993494323297	396
0	1092	3930.967229602376	397
0	1094	3935.776011845406	398
0	1096	3947.720911280486	399
0	1104	3970.457982947363	400
0	1106	3971.748367979206	401
0	1108	3974.617458933042	402
0	1110	3975.736904344481	403
0	1112	4005.886587066341	404
0	1114	4008.544752556564	405
0	1116	4020.249109856701	406
0	1118	4020.850393548001	407
0	1120	4033.970024358849	408
0	1122	4055.317048304259	409
0	1124	4058.497593756168	410
0	1126	4063.262751965894	411
0	1134	4067.951533522173	412
0	1136	4081.766124320654	413
0	1138	4097.639696617579	414
0	1140	4104.650151710839	415
0	1142	4108.163364526261	416
0	1144	4129.875623339803	417
0	1146	4134.212271893541	418
0	1148	4147.621289139453	419
0	1150	4155.726220611275	420
0	1152	4157.976645549895	421
0	1154	4165.928867562983	422
0	1156	4173.261120949769	423
0	1158	4177.550239307485	424
0	1160	4177.799520264762	425
0	1162	4179.410946053017	426
0	1164	4180.824877180345	427
0	1166	4193.132065690654	428
0	1168	4205.478864451189	429
0	1170	4214.939881863731	430
0	1172	4226.084464180892	431
0	1174	4232.017769863498	432
0	1176	4243.927584397464	433
0	1178	4248.680981093879	434
0	1180	4249.734942392999	435
0	1194	4281.988103230165	436
0	1196	4282.740021321804	437
0	1198	4290.656112267838	438
0	1200	4292.263412673513	439
0	1202	4295.256942702927	440
0	1204	4297.684397076523	441
0	1206	4306.357317264829	442
0	1208	4343.551400373823	443
0	1210	4346.739810857952	444
0	1212	4381.83044636799	445
0	1214	4382.088726812248	446
0	1228	4403.985193957829	447
0	1230	4416.31608123	448
0	1238	4420.984724665633	449
0	1240	4421.253530860735	450
0	1248	4425.310794299404	451
0	1250	4451.101925607264	452
0	1252	4452.948084336329	453
0	1254	4476.123344961985	454
0	1256	4480.127160276579	455
0	1258	4502.130453481021	456
0	1260	4509.314111833133	457
0	1262	4516.460453706913	458
0	1264	4521.351537813114	459
0	1266	4528.903655990719	460
0	1268	4557.854832160929	461
0	1270	4580.191230671916	462
0	1272	4591.495802655059	463
0	1274	4601.685334465822	464
0	1276	4609.634062826478	465
0	1278	4612.817992987037	466
0	1280	4614.422834060619	467
0	1282	4633.823316159404	468
0	1284	4643.903451564247	469
0	1286	4647.465109379883	470
0	1288	4653.631040265115	471
0	1290	4653.879372342579	472
0	1292	4662.045299231059	473
0	1294	4666.526178914813	474
0	1296	4673.511988975604	475
0	1298	4675.179946556828	476
0	1300	4680.72263129096	477
0	1302	4704.385533929434	478
0	1304	4704.471014115884	479
0	1312	4739.16495250365	480
0	1314	4750.905653871594	481
0	1316	4759.512800946733	482
0	1318	4771.396092549608	483
0	1320	4782.542202579599	484
0	1322	4812.274285974415	485
0	1324	4812.301354720202	486
0	1326	4822.719799368412	487
0	1328	4831.892517337532	488
0	1330	4840.777804460787	489
0	1338	4873.684292763382	490
0	1340	4873.854449000677	491
0	1342	4879.664535555272	492
0	1344	4891.219282842739	493
0	1346	4901.677535770602	494
0	1348	4901.972853882242	495
0	1350	4927.171740820708	496
0	1352	4934.990585051751	497
0	1354	4982.254537020363	498
0	1356	4987.085067262996	499
0	1358	5003.518599615055	500
0	1360	5009.699123386455	501
0	1362	5027.23360456922	502
0	1364	5034.979741932782	503
0	1366	5056.806880825637	504
0	1368	5078.018425394095	505
0	1370	5081.997909340583	506
0	1372	5087.18018782162	507
0	1374	5095.047018976218	508
0	1376	5104.767508661016	509
0	1378	5109.53748617046	510
0	1380	5117.349174070335	511
0	1382	5118.637960530753	512
0	1384	5130.054115765962	513
0	1386	5133.438527094136	514
0	1388	5133.877799435402	515
0	1390	5135.111894150475	516
0	1392	5136.237193614262	517
0	1394	5140.042303099883	518
0	1396	5142.873027458357	519
0	1398	5151.146286694392	520
0	1406	5174.828647224417	521
0	1408	5183.506198653809	522
0	1410	5189.419226509504	523
0	1418	5213.265379941812	524
0	1420	5215.011657906612	525
0	1422	5219.100833199077	526
0	1424	5228.923215043171	527
0	1426	5233.406508109289	528
0	1428	5257.597022050874	529
0	1430	5278.674825634909	530
0	1432	5284.369186773616	531
0	1434	5291.659253987427	532
0	1436	5298.096502045949	533
0	1438	5300.134355868035	534
0	1440	5305.83941574879	535
0	1442	5307.916448610908	536
0	1444	5320.476404598643	537
0	1446	5327.878926512793	538
0	1448	5331.743868333229	539
0	1450	5331.774911901315	540
0	1452	5340.870618950044	541
0	1454	5351.342541504959	542
0	1456	5351.394572833033	543
0	1458	5386.534361062539	544
0	1460	5397.43681692715	545
0	1462	5400.906105758697	546
0	1464	5403.142096342045	547
0	1472	5429.138828795498	548
0	1474	5432.838620593006	549
0	1476	5436.1793714236	550
0	1478	5438.902883687148	551
0	1480	5446.1289060625	552
0	1482	5450.716419088964	553
0	1484	5456.814040817545	554
0	1486	5460.931046596272	555
0	1488	5496.162560008566	556
0	1490	5497.594792723378	557
0	1492	5498.612949143148	558
0	1494	5502.81962586715	559
0	1496	5511.760684748401	560
0	1498	5522.524589342578	561
0	1500	5527.587229013399	562
0	1508	5599.921913541385	563
0	1510	5604.258908245391	564
0	1512	5632.006454461194	565
0	1514	5643.155123001898	566
0	1516	5646.257084234541	567
0	1518	5654.559690702208	568
0	1520	5686.009666229241	569
0	1522	5687.214248906932	570
0	1524	5690.39194232075	571
0	1526	5691.24815026186	572
0	1534	5705.741368956617	573
0	1536	5705.960642763514	574
0	1538	5711.62193828047	575
0	1540	5719.003305705954	576
0	1542	5733.835039786305	577
0	1544	5765.713881509038	578
0	1546	5766.961812431644	579
0	1548	5768.093545755565	580
0	1550	5777.002083774477	581
0	1558	5790.682623988231	582
0	1560	5809.531270130276	583
0	1562	5818.599901203336	584
0	1570	5840.837729360838	585
0	1578	5856.021420844809	586
0	1580	5857.620862978342	587
0	1582	5859.7165078356	588
0	1584	5882.619080034601	589
0	1586	5882.708793907941	590
0	1588	5883.65446127295	591
0	1590	5893.308819269916	592
0	1592	5898.128611365521	593
0	1594	5899.144099071331	594
0	1602	5941.09678527255	595
0	1614	5963.786476138786	596
0	1618	5970.146980850029	597
0	1620	5976.681513447297	598
0	1628	6015.782921143834	599
0	1630	6021.294300626982	600
0	1632	6021.698880183588	601
0	1634	6028.309678191885	602
0	1636	6034.439350878703	603
0	1638	6037.121581811418	604
0	1640	6037.728324813167	605
0	1642	6039.050440811453	606
0	1650	6058.482446374719	607
0	1652	6063.585160352305	608
0	1654	6068.679445454516	609
0	1656	6074.331561802986	610
0	1658	6083.864421115213	611
0	1660	6084.590581696271	612
0	1668	6101.873175425947	613
0	1670	6112.469624858041	614
0	1672	6116.38647025686	615
0	1674	6120.187660570245	616
0	1676	6138.104203929112	617
0	1678	6153.056515110402	618
0	1680	6156.357582050938	619
0	1682	6168.872671620444	620
0	1684	6177.118388852231	621
0	1686	6182.220980355816	622
0	1688	6189.789523528079	623
0	1690	6190.680383102987	624
0	1692	6201.636881805481	625
0	1694	6201.937709760833	626
0	1696	6223.94587850449	627
0	1698	6235.406658855131	628
0	1700	6257.599614072865	629
0	1702	6257.611697091645	630
0	1704	6285.292697668523	631
0	1712	6317.067003883182	632
0	1714	6332.979026516612	633
0	1716	6335.093238266392	634
0	1718	6335.286319318319	635
0	1720	6342.587539520875	636
0	1722	6361.088431719586	637
0	1724	6365.759963984189	638
0	1726	6368.281360748515	639
0	1728	6369.120961148848	640
0	1730	6370.01267197153	641
0	1732	6372.51520477556	642
0	1734	6373.568966181865	643
0	1736	6376.648354137671	644
0	1738	6377.332742891503	645
0	1740	6378.011301671982	646
0	1748	6397.40991926789	647
0	1750	6399.178726329108	648
0	1752	6423.392092793543	649
0	1754	6445.016142220794	650
0	1762	6467.773342051528	651
0	1764	6471.810871122671	652
0	1766	6477.48455231933	653
0	1768	6484.997276056032	654
0	1770	6489.296498083419	655
0	1772	6504.505257159753	656
0	1774	6518.40915043202	657
0	1776	6544.611166200825	658
0	1778	6544.90496567365	659
0	1780	6567.508970147408	660
0	1782	6572.494133466545	661
0	1784	6593.562054725345	662
0	1786	6605.299232004089	663
0	1788	6648.999229518366	664
0	1790	6663.240539674726	665
0	1792	6667.774673858051	666
0	1794	6674.727431667917	667
0	1796	6679.449719154357	668
0	1798	6683.989633621855	669
0	1800	6687.012915002344	670
0	1802	6693.86411578172	671
0	1804	6705.312980276411	672
0	1806	6708.561148322874	673
0	1808	6715.992504865926	674
0	1810	6717.241113444313	675
0	1812	6718.982805655378	676
0	1814	6719.4621776512	677
0	1822	6754.774591656117	678
0	1824	6754.81326988799	679
0	1826	6763.464760477233	680
0	1828	6765.329256819139	681
0	1830	6776.924416479199	682
0	1844	6814.561224414509	683
0	1846	6823.94130557059	684
0	1848	6831.02666632499	685
0	1850	6849.127776439606	686
0	1852	6854.493997269327	687
0	1854	6859.865834640191	688
0	1860	6887.451447869339	689
0	1864	6900.259411100021	690
0	1866	6904.910268537503	691
0	1868	6904.924111663564	692
0	1870	6907.770113503467	693
0	1872	6911.600794174315	694
0	1874	6931.174978096711	695
0	1882	6937.309158757955	696
0	1884	6943.189596874727	697
0	1886	6951.672264973121	698
0	1888	6966.57475583991	699
0	1890	6989.610824606208	700
0	1892	6994.791115177391	701
0	1900	7017.361986593699	702
0	1902	7018.034956265736	703
0	1904	7029.295484242718	704
0	1906	7032.104395797689	705
0	1908	7034.543692496302	706
0	1910	7036.359484672911	707
0	1918	7061.967423820588	708
0	1920	7065.449910162394	709
0	1922	7067.606908575153	710
0	1924	7069.908166256724	711
0	1926	7077.575420078	712
0	1928	7083.334649806708	713
0	1930	7120.219369561556	714
0	1932	7123.797896284833	715
0	1934	7124.620521939546	716
0	1942	7137.598887631021	717
0	1950	7174.658794004237	718
0	1952	7178.285705366298	719
0	1954	7178.658166289329	720
0	1956	7183.882458722807	721
1	1	0	1
1	3	12.559307580474	2
1	5	21.791538895182	3
1	7	29.663550295001	4
1	9	35.174035161704	5
1	11	45.555628168343	6
1	13	51.310820137173	7
1	15	73.546064357536	8
1	17	106.695187156819	9
1	19	111.531208206303	10
1	21	127.220169382533	11
1	23	134.746910515661	12
1	25	143.141239044663	13
1	28	143.607667269234	12
1	30	169.123779903153	13
1	32	169.860633457804	14
1	34	170.772243719047	15
1	36	170.976499603038	16
1	38	188.851376237425	17
1	40	203.909218823799	18
1	42	224.312361403218	19
1	44	262.764580094636	20
1	46	278.816975665251	20
1	48	285.006270261518	20
1	50	296.36565967862	20
1	52	306.579978422112	20
1	54	314.288325006785	20
1	56	321.666597924344	20
1	58	328.083544944655	20
1	60	342.966093202172	20
1	62	345.406578109537	20
1	64	345.596263801548	20
1	66	347.217628696008	20
1	68	356.81310846969	20
1	70	380.102242211832	20
1	72	384.557427162344	20
1	75	385.386243221777	19
1	77	385.386243221777	19
1	78	386.386243221777	20
1	80	407.820937779287	20
1	82	408.442090683951	20
1	84	419.030431998827	20
1	86	421.392499059654	20
1	88	435.282925957564	20
1	90	439.80394655981	20
1	92	440.195778123941	20
1	95	475.1017871022	19
1	97	475.1017871022	19
1	98	476.1017871022	20
1	100	484.740746585702	20
1	103	488.722556166975	19
1	105	488.722556166975	19
1	106	489.722556166975	20
1	108	495.319010719224	20
1	110	497.07814617348	20
1	112	505.797304709737	20
1	114	512.076720519649	20
1	116	521.845361260356	20
1	118	523.014915358281	20
1	120	526.830473792023	20
1	122	529.019279757096	20
1	124	539.881973565879	20
1	126	540.903422381128	20
1	128	552.101566038667	20
1	130	589.591880634512	20
1	132	596.717716567844	20
1	134	606.002501536858	20
1	136	606.20440281832	20
1	138	609.528505227957	20
1	140	613.982699847155	20
1	142	615.246586211408	20
1	145	627.709424634318	19
1	147	627.709424634318	19
1	148	628.709424634318	20
1	150	636.488958181425	20
1	152	637.151932196247	20
1	154	645.480367356909	20
1	156	648.564515757887	20
1	159	663.754228948939	19
1	161	663.754228948939	19
1	162	664.754228948939	20
1	164	673.420339327655	20
1	166	681.999295738397	20
1	168	685.252699893687	20
1	170	696.261158994595	20
1	173	702.67572409073	19
1	175	702.67572409073	19
1	176	703.67572409073	20
1	178	706.67896553639	20
1	180	710.095507206651	20
1	182	715.167508439217	20
1	184	715.370633027173	20
1	186	719.987941987618	20
1	189	722.074264309295	19
1	191	722.074264309295	19
1	192	723.074264309295	20
1	194	731.314283407343	20
1	197	741.787649863738	19
1	199	741.787649863738	19
1	200	742.787649863738	20
1	202	743.479369941709	20
1	204	776.230801718857	20
1	206	790.341045811801	20
1	208	799.30695451966	20
1	210	809.493541819848	20
1	212	840.016358388691	20
1	214	845.942598663213	20
1	216	864.677197461785	20
1	219	866.257318087682	19
1	221	866.257318087682	19
1	222	867.257318087682	20
1	224	876.69958313425	20
1	226	880.229784466992	20
1	228	885.537009433157	20
1	231	890.86682610734	19
1	233	890.86682610734	19
1	234	891.86682610734	20
1	236	896.789829601594	20
1	238	899.663934362294	20
1	241	919.40599118099	19
1	243	919.40599118099	19
1	244	920.40599118099	20
1	246	921.012238862126	20
1	248	932.806068198572	20
1	250	943.584417039936	20
1	252	951.203094752895	20
1	254	953.823667169649	20
1	256	958.846775152258	20
1	258	968.491310807197	20
1	260	974.932357890423	20
1	262	981.283635046731	20
1	264	993.87407021937	20
1	266	997.270717545194	20
1	268	1002.107074411088	20
1	270	1015.936866476456	20
1	273	1032.81558730837	19
1	275	1032.81558730837	19
1	276	1033.81558730837	20
1	278	1037.01134252596	20
1	280	1038.096813510909	20
1	282	1046.535698236818	20
1	284	1055.472989019873	20
1	286	1064.013786376303	20
1	288	1074.603880230115	20
1	291	1078.27246618073	19
1	293	1078.27246618073	19
1	294	1079.27246618073	20
1	296	1085.162376316712	20
1	298	1090.80848132792	20
1	300	1092.331417580465	20
1	302	1093.354623728991	20
1	304	1134.732721334095	20
1	306	1137.748380466328	20
1	308	1145.449149061791	20
1	310	1151.389884045029	20
1	312	1152.438702401033	20
1	314	1156.782158960471	20
1	316	1163.116785137698	20
1	318	1181.514112988473	20
1	320	1205.01588588598	20
1	322	1205.398715014828	20
1	325	1207.581746833734	19
1	327	1207.581746833734	19
1	328	1208.581746833734	20
1	330	1212.497894287068	20
1	332	1214.323280305894	20
1	334	1233.162569171755	20
1	336	1249.629760185023	20
1	339	1256.780357965281	19
1	341	1256.780357965281	19
1	342	1257.780357965281	20
1	344	1258.048569802343	20
1	346	1263.277270103227	20
1	348	1303.775738491273	20
1	350	1308.448464155372	20
1	352	1313.897035436819	20
1	354	1314.416160958649	20
1	356	1318.965279406566	20
1	358	1319.132957066488	20
1	360	1321.75625015815	20
1	362	1336.234190978035	20
1	364	1365.08030849906	20
1	366	1378.943222019272	20
1	368	1383.089347445863	20
1	370	1389.813952614199	20
1	372	1393.953741840926	20
1	374	1395.932036915517	20