version 3
run HighDemand-0-20250605-20:49:34-19934
attr configname HighDemand
attr datetime 20250605-20:49:34
attr datetimef 20250605-204934
attr experiment HighDemand
attr inifile omnetpp.ini
attr iterationvars ""
attr iterationvarsd ""
attr iterationvarsf ""
attr measurement ""
attr network smartparkingsystem.SmartParkingNetwork
attr processid 19934
attr repetition 0
attr replication #0
attr resultdir results
attr runnumber 0
attr seedset 0
config **.parkingLot.numSlots 20
config **.parkingLot.arrivalRate 0.1
config **.parkingLot.avgParkingDuration 1200.0
config network smartparkingsystem.SmartParkingNetwork
config sim-time-limit 7200s
config seed-set 0
config **.parkingLot.numSlots 20
config **.parkingLot.arrivalRate 0.05
config **.parkingLot.avgParkingDuration 600.0
config **.parkingLot.simulationTime 7200.0
config **.parkingLot.sensorMalfunctionRate 0.001
config **.parkingLot.sensorRepairTime 300.0
config output-vector-file results/HighDemand-0.vec
config output-scalar-file results/HighDemand-0.sca
config repeat 10

vector 0 SmartParkingNetwork.parkingLot vehicleArrival:vector ETV
attr recordingmode vector
attr title "Vehicle Arrivals"
vector 1 SmartParkingNetwork.parkingLot queueLength:vector ETV
attr recordingmode vector
attr title "Queue Length"
vector 2 SmartParkingNetwork.parkingLot occupiedSlots:vector ETV
attr recordingmode vector
attr title "Occupied Slots"
vector 3 SmartParkingNetwork.parkingLot utilizationRate:vector ETV
attr recordingmode vector
attr title "Utilization Rate"
0	1	0	0
1	1	0	0
2	1	0	1
3	1	0	0.05
vector 4 SmartParkingNetwork.parkingLot waitingTime:vector ETV
attr recordingmode vector
attr title "Waiting Time"
1	2	0	0
2	2	0	1
3	2	0	0.05
4	2	0	0
0	3	12.559307580474	1
1	3	12.559307580474	0
2	3	12.559307580474	2
3	3	12.559307580474	0.1
1	4	12.559307580474	0
2	4	12.559307580474	2
3	4	12.559307580474	0.1
4	4	12.559307580474	0
0	5	21.791538895182	2
1	5	21.791538895182	0
2	5	21.791538895182	3
3	5	21.791538895182	0.15
1	6	21.791538895182	0
2	6	21.791538895182	3
3	6	21.791538895182	0.15
4	6	21.791538895182	0
0	7	29.663550295001	3
1	7	29.663550295001	0
2	7	29.663550295001	4
3	7	29.663550295001	0.2
1	8	29.663550295001	0
2	8	29.663550295001	4
3	8	29.663550295001	0.2
4	8	29.663550295001	0
0	9	35.174035161704	4
1	9	35.174035161704	0
2	9	35.174035161704	5
3	9	35.174035161704	0.25
1	10	35.174035161704	0
2	10	35.174035161704	5
3	10	35.174035161704	0.25
4	10	35.174035161704	0
0	11	45.555628168343	5
1	11	45.555628168343	0
2	11	45.555628168343	6
3	11	45.555628168343	0.3
1	12	45.555628168343	0
2	12	45.555628168343	6
3	12	45.555628168343	0.3
4	12	45.555628168343	0
0	13	51.310820137173	6
1	13	51.310820137173	0
2	13	51.310820137173	7
3	13	51.310820137173	0.35
1	14	51.310820137173	0
2	14	51.310820137173	7
3	14	51.310820137173	0.35
4	14	51.310820137173	0
0	15	73.546064357536	7
1	15	73.546064357536	0
2	15	73.546064357536	8
3	15	73.546064357536	0.4
1	16	73.546064357536	0
2	16	73.546064357536	8
3	16	73.546064357536	0.4
4	16	73.546064357536	0
0	17	106.695187156819	8
1	17	106.695187156819	0
2	17	106.695187156819	9
3	17	106.695187156819	0.45
1	18	106.695187156819	0
2	18	106.695187156819	9
3	18	106.695187156819	0.45
4	18	106.695187156819	0
0	19	111.531208206303	9
1	19	111.531208206303	0
2	19	111.531208206303	10
3	19	111.531208206303	0.5
1	20	111.531208206303	0
2	20	111.531208206303	10
3	20	111.531208206303	0.5
4	20	111.531208206303	0
0	21	127.220169382533	10
1	21	127.220169382533	0
2	21	127.220169382533	11
3	21	127.220169382533	0.55
1	22	127.220169382533	0
2	22	127.220169382533	11
3	22	127.220169382533	0.55
4	22	127.220169382533	0
0	23	134.746910515661	11
1	23	134.746910515661	0
2	23	134.746910515661	12
3	23	134.746910515661	0.6
1	24	134.746910515661	0
2	24	134.746910515661	12
3	24	134.746910515661	0.6
4	24	134.746910515661	0
0	25	143.141239044663	12
1	25	143.141239044663	0
2	25	143.141239044663	13
3	25	143.141239044663	0.65
1	26	143.141239044663	0
2	26	143.141239044663	13
3	26	143.141239044663	0.65
4	26	143.141239044663	0
vector 5 SmartParkingNetwork.parkingLot vehicleDeparture:vector ETV
attr recordingmode vector
attr title "Vehicle Departures"
1	27	143.607667269234	0
2	27	143.607667269234	12
3	27	143.607667269234	0.6
5	27	143.607667269234	7
0	28	169.123779903153	13
1	28	169.123779903153	0
2	28	169.123779903153	13
3	28	169.123779903153	0.65
1	29	169.123779903153	0
2	29	169.123779903153	13
3	29	169.123779903153	0.65
4	29	169.123779903153	0
0	30	169.860633457804	14
1	30	169.860633457804	0
2	30	169.860633457804	14
3	30	169.860633457804	0.7
1	31	169.860633457804	0
2	31	169.860633457804	14
3	31	169.860633457804	0.7
4	31	169.860633457804	0
0	32	170.772243719047	15
1	32	170.772243719047	0
2	32	170.772243719047	15
3	32	170.772243719047	0.75
0	34	170.976499603038	16
0	36	188.851376237425	17
0	38	203.909218823799	18
0	40	224.312361403218	19
0	42	262.764580094636	20
0	44	278.816975665251	21
0	45	285.006270261518	22
0	46	300.17163000142	23
0	47	301.430374095801	24
0	48	311.644692839293	25
0	49	313.191989644293	26
0	50	342.136194424164	27
0	51	349.514467341723	28
0	52	354.870124544002	29
0	53	357.942928065527	30
0	54	372.825476323044	31
0	55	378.916300554875	32
0	58	387.319647610997	33
0	59	387.509333303008	34
0	60	397.123142693666	35
0	61	406.593109465416	36
0	62	416.188589239098	37
0	63	444.967739451875	38
0	64	456.419128998876	39
0	65	460.874313949388	40
0	66	466.6196380168	41
0	69	478.580716011371	42
0	70	479.201868916035	43
0	73	490.190993591544	44
0	74	501.296968048416	45
0	75	503.659035109243	46
0	76	505.039321993528	47
0	77	508.828941636355	48
0	78	513.349962238601	49
0	79	521.794240173878	50
0	80	527.567483281943	51
0	81	572.112451743704	52
0	82	573.188802825265	53
0	83	575.531818013021	54
0	84	577.290953467277	55
0	85	587.878380618218	56
0	86	590.79918595089	57
0	87	597.078601760802	58
0	88	599.881371845592	59
0	89	601.612646407054	60
0	90	602.782200504979	61
0	91	613.462922476474	62
0	92	614.950045168995	63
0	93	617.138851134068	64
0	94	621.738990711471	65
0	97	638.942307288637	66
0	98	639.963756103886	67
0	99	658.16194529673	68
0	100	659.17229304982	69
0	103	696.662607645665	70
0	104	702.985973609623	71
0	107	740.605246454663	72
0	110	749.890031423677	73
0	111	763.3324841452	74
0	112	763.732247135783	75
0	113	767.05634954542	76
0	114	768.336917198532	77
0	115	771.848678092345	78
0	116	773.112564456598	79
0	117	776.939573945216	80
0	118	782.288417702785	81
0	119	782.951391717607	82
0	120	794.743286988259	83
0	121	803.104262307962	84
0	122	806.18841070894	85
0	123	813.59600021341	86
0	124	814.582503297593	87
0	125	823.161459708335	88
0	126	849.654018995099	89
0	127	853.489621136085	90
0	128	864.498080236993	91
0	129	865.911387372601	92
0	130	878.510725473691	93
0	131	881.927267143952	94
0	132	883.950771529624	95
0	135	892.782061949217	96
0	136	892.985186537173	97
0	137	910.642597261304	98
0	138	910.689662666227	99
0	141	922.016004085952	100
0	142	925.163220694498	101
0	143	938.450799432001	102
0	144	971.202231209149	103
0	145	974.06244093423	104
0	146	982.64637061252	105
0	147	991.612279320379	106
0	148	1000.104487436023	107
0	149	1002.628687364934	108
0	154	1033.151503933777	109
0	155	1039.077744208299	110
0	156	1057.812343006871	111
0	157	1069.834728679336	112
0	158	1073.364930012078	113
0	161	1090.174152057537	114
0	162	1095.224339535084	115
0	163	1116.519333495764	116
0	164	1125.224691759028	117
0	165	1146.57299625886	118
0	166	1158.366825595306	119
0	167	1171.285918283313	120
0	168	1178.243912892318	121
0	171	1209.4985964689	122
0	172	1219.826566575354	123
0	173	1225.340526476696	124
0	174	1234.664555280762	125
0	175	1234.858353094242	126
0	176	1238.44762525294	127
0	177	1249.240827239496	128
0	178	1252.666823486477	129
0	179	1262.290574044187	130
0	180	1267.890184744927	131
0	181	1269.345924529406	132
0	184	1272.88816585186	133
0	185	1281.327050577769	134
0	186	1290.264341360824	135
0	187	1298.805138717254	136
0	188	1309.395232571066	137
0	189	1319.953728657663	138
0	190	1325.599833668871	139
0	191	1348.286173595796	140
0	192	1352.867902435378	141
0	195	1358.592517949662	142
0	198	1380.841664521915	143
0	201	1397.250640301183	144
0	202	1409.420835254558	145
0	203	1410.476961690846	146
0	206	1435.669782991679	147
0	207	1448.195858240796	148
0	208	1515.849763440167	149
0	209	1517.46846430729	150
0	210	1537.727552478323	151
0	211	1539.500808229774	152
0	212	1549.060472468998	153
0	213	1550.382309565145	154
0	216	1569.221598431006	155
0	217	1585.688789444274	156
0	218	1594.107599061594	157
0	219	1599.336299362478	158
0	220	1600.053053205607	159
0	221	1612.007438868429	160
0	222	1618.050429586905	161
0	223	1630.853771625029	162
0	226	1650.981498987087	163
0	229	1688.081104906125	164
0	232	1707.446877281037	165
0	233	1707.564709600221	166
0	236	1712.027237805411	167
0	237	1725.120221445639	168
0	238	1727.00317119783	169
0	239	1734.364482197696	170
0	240	1734.923182726581	171
0	241	1737.154574807589	172
0	242	1737.341529511799	173
0	245	1753.125656732859	174
0	246	1755.660713784293	175
0	247	1759.89728479786	176
0	248	1786.219473423348	177
0	249	1798.407441456782	178
0	250	1798.731009503235	179
0	251	1800.530582918753	180
0	252	1810.245404499702	181
0	255	1818.854640866509	182
0	256	1821.571321569932	183
0	257	1848.784804129062	184
0	260	1858.303101204484	185
0	261	1865.973897750207	186
0	262	1874.887683519307	187
0	263	1887.985537232924	188
0	264	1891.724402191955	189
0	265	1896.803053418822	190
0	266	1899.158299153007	191
0	267	1901.218619637837	192
0	268	1930.109375556825	193
0	269	1943.562849889164	194
0	270	1950.305295585526	195
0	271	1952.885423224926	196
0	272	1955.820499744159	197
0	273	1956.418309373313	198
0	274	1962.117285026378	199
0	275	1965.853982970323	200
0	278	1977.772564006872	201
0	279	1982.516726910201	202
0	280	1984.496404263541	203
0	281	1984.746287796669	204
0	282	1985.442464507405	205
0	283	1996.817849562811	206
0	284	2002.863661746163	207
0	285	2010.554859757127	208
0	286	2033.253259914968	209
0	289	2079.649785178705	210
0	290	2082.094695399134	211
0	291	2092.973739735277	212
0	292	2096.02978875342	213
0	293	2096.238460939522	214
0	294	2110.442295495374	215
0	295	2114.299172435826	216
0	296	2119.135556310722	217
0	297	2128.010575595559	218
0	300	2145.792008963899	219
0	301	2155.707051892871	220
0	304	2176.31526430168	221
0	305	2179.511010850408	222
0	306	2195.508205268808	223
0	307	2197.561682956165	224
0	310	2228.093529652099	225
0	311	2239.724662486354	226
0	312	2242.151847423072	227
0	317	2271.596650197305	228
0	320	2284.721730126961	229
0	321	2287.651244711827	230
0	322	2290.05047990619	231
0	323	2297.352756558581	232
0	324	2297.612734010512	233
0	325	2299.93798419436	234
0	326	2305.466367900878	235
0	327	2310.153132660647	236
0	328	2316.381425758296	237
0	329	2319.633585938059	238
0	332	2328.471442498388	239
0	335	2348.411834511158	240
0	336	2349.662160410393	241
0	337	2356.947398837736	242
0	338	2358.363819185688	243
0	341	2370.981945920561	244
0	342	2376.024745253076	245
0	345	2384.358527659535	246
0	346	2386.383115296516	247
0	347	2387.94787300036	248
0	348	2394.643278908971	249
0	349	2399.037832813899	250
0	350	2427.244192298049	251
0	351	2441.739740062325	252
0	354	2455.549371018993	253
0	355	2478.954290625567	254
0	356	2479.825376458152	255
0	357	2487.859294084823	256
0	358	2496.641444872006	257
0	359	2529.326408880235	258
0	360	2532.781604717322	259
0	361	2535.536884087705	260
0	362	2536.593755828752	261
0	363	2536.759416772968	262
0	364	2563.285001928173	263
0	365	2574.369099470313	264
0	366	2589.747386615079	265
0	367	2593.05648542684	266
0	368	2601.885290876411	267
0	369	2602.546210983345	268
0	372	2609.194288478861	269
0	375	2647.134526309739	270
0	376	2668.050092035972	271
0	377	2672.17739070324	272
0	380	2704.766600475087	273
0	381	2707.402371603439	274
0	382	2737.224378358165	275
0	383	2765.59078029192	276
0	384	2781.645367922598	277
0	387	2791.600004356265	278
0	388	2812.337618987266	279
0	389	2815.805152025154	280
0	390	2834.706169006117	281
0	391	2844.326288272018	282
0	392	2844.459540720302	283
0	393	2848.724898840667	284
0	394	2850.328239785533	285
0	395	2890.407736334277	286
0	396	2896.915709757868	287
0	397	2903.795144542478	288
0	398	2913.997015422026	289
0	399	2918.594928599784	290
0	400	2920.067178972915	291
0	401	2937.333512770337	292
0	402	2939.438845652378	293
0	403	2946.599298832314	294
0	404	2949.139412615816	295
0	405	2950.169096253008	296
0	406	2969.987999664097	297
0	409	3006.077409713935	298
0	412	3038.477039382943	299
0	413	3062.180915189083	300
0	414	3077.05521273248	301
0	415	3081.107041555904	302
0	416	3081.952836473523	303
0	417	3087.182513010081	304
0	418	3089.825217651438	305
0	419	3091.246472765365	306
0	420	3091.795546490876	307
0	423	3104.727025078834	308
0	424	3104.841957580919	309
0	427	3119.563999160855	310
0	428	3121.153330957417	311
0	429	3121.981953686602	312
0	430	3122.920699159428	313
0	433	3134.069573378498	314
0	434	3136.884813603208	315
0	435	3142.341390750881	316
0	436	3150.491574059844	317
0	441	3170.192149715768	318
0	442	3183.176606071815	319
0	443	3186.328206358973	320
0	444	3187.737885203124	321
0	445	3188.307550527793	322
0	446	3191.89716371156	323
0	447	3194.936879303849	324
0	448	3201.027523857085	325
0	449	3212.524937734583	326
0	450	3224.419900247932	327
0	451	3227.753933631686	328
0	452	3232.533113506797	329
0	453	3234.531668886004	330
0	454	3250.069123906326	331
0	455	3250.654402895791	332
0	456	3262.594536601743	333
0	457	3277.676688918013	334
0	458	3292.700816855121	335
0	459	3295.704067657978	336
0	460	3300.385132190326	337
0	461	3309.242738650625	338
0	462	3312.428577129416	339
0	463	3317.062477404816	340
0	464	3319.257159013754	341
0	465	3325.416351851596	342
0	466	3325.872732346551	343
0	467	3341.95691083741	344
0	468	3342.75769939685	345
0	469	3350.073152788177	346
0	470	3353.737665706503	347
0	471	3362.354340624455	348
0	474	3394.402428920572	349
0	475	3404.7748798616	350
0	476	3405.134908159094	351
0	477	3410.763160177266	352
0	480	3417.897003005274	353
0	481	3425.579536423948	354
0	482	3437.017490215136	355
0	483	3440.269198920022	356
0	484	3441.648731239316	357
0	485	3446.635654568016	358
0	486	3477.963949463482	359
0	487	3480.035801285994	360
0	492	3503.468200586921	361
0	493	3511.316570782837	362
0	494	3517.421399232814	363
0	499	3538.795616136987	364
0	500	3544.931658234398	365
0	501	3557.811277985157	366
0	502	3562.90330285382	367
0	503	3586.341999261806	368
0	504	3598.054636211276	369
0	505	3610.081774049569	370
0	506	3614.052583549774	371
0	509	3628.190416845168	372
0	512	3638.29810847616	373
0	513	3641.042743696196	374
0	514	3642.792694178378	375
0	515	3658.70825540631	376
0	516	3690.69080517401	377
0	517	3696.818259622648	378
0	518	3705.758273649449	379
0	519	3725.258042767916	380
0	520	3731.368618380772	381
0	521	3761.708044104747	382
0	522	3770.282395130885	383
0	523	3787.47308824877	384
0	524	3811.424886142664	385
0	525	3828.327235690249	386
0	526	3830.063801322333	387
0	527	3839.976596379926	388
0	528	3845.058790920454	389
0	529	3845.706447848352	390
0	530	3851.223483974256	391
0	531	3854.21676779844	392
0	532	3873.124059342754	393
0	533	3873.462777895178	394
0	534	3905.400396622001	395
0	535	3909.791166477879	396
0	536	3914.202714585175	397
0	537	3914.367347425022	398
0	538	3916.415870096488	399
0	539	3921.545140014778	400
0	540	3948.03702263708	401
0	541	3949.086350110364	402
0	544	3978.14554614692	403
0	547	3998.50848801964	404
0	548	4004.562825836042	405
0	549	4008.518481839994	406
0	550	4011.167831216368	407
0	551	4020.699056599029	408
0	552	4021.03539580823	409
0	553	4021.192687045979	410
0	554	4026.792770779287	411
0	555	4027.497790262892	412
0	556	4030.400524414125	413
0	557	4032.900032580623	414
0	558	4035.819493297911	415
0	559	4037.224250467461	416
0	560	4037.345342918077	417
0	561	4038.572492991247	418
0	562	4048.208419954139	419
0	563	4084.804041138756	420
0	564	4131.206841098254	421
0	565	4136.467149055855	422
0	566	4138.245916634419	423
0	567	4148.428092422489	424
0	570	4155.167526864676	425
0	571	4200.645765383275	426
0	574	4201.321106952046	427
0	575	4216.610495659165	428
0	580	4220.0128678553	429
0	581	4222.775919784575	430
0	582	4233.637952896148	431
0	583	4236.462420015731	432
0	586	4247.424345625825	433
0	587	4254.708121356152	434
0	588	4260.226142572534	435
0	589	4268.315939523862	436
0	590	4271.699400710849	437
0	591	4283.960722833185	438
0	594	4289.31971078658	439
0	595	4293.791109812554	440
0	596	4311.43198373444	441
0	599	4337.330245189412	442
0	600	4337.801237899967	443
0	601	4340.449060633352	444
0	602	4344.73413667515	445
0	603	4361.606319562725	446
0	604	4403.936477526045	447
0	607	4438.665034585071	448
0	608	4462.198382265803	449
0	611	4465.716056120102	450
0	618	4514.013258599795	451
0	619	4516.882349553631	452
0	620	4518.00179496507	453
0	623	4548.15147768693	454
0	624	4550.809643177153	455
0	625	4562.51400047729	456
0	626	4563.11528416859	457
0	627	4576.234914979438	458
0	630	4597.581938924848	459
0	631	4600.762484376757	460
0	632	4605.527642586483	461
0	633	4610.216424142762	462
0	634	4624.031014941243	463
0	635	4626.746572858062	464
0	636	4628.632220100573	465
0	637	4634.597719269343	466
0	638	4638.228507671185	467
0	639	4656.503770349352	468
0	640	4659.218470013646	469
0	641	4666.197845501959	470
0	642	4694.772098980119	471
0	643	4704.823255465843	472
0	644	4725.019100498036	473
0	645	4753.188217797683	474
0	646	4767.081802867167	475
0	647	4779.107376314257	476
0	648	4813.516816790111	477
0	651	4865.36811102044	478
0	652	4871.379657484279	479
0	653	4872.114721258467	480
0	654	4875.579054533417	481
0	655	4877.231984656624	482
0	656	4882.636011632643	483
0	657	4884.043463186928	484
0	658	4893.309849189896	485
0	659	4898.135601341503	486
0	660	4920.710369249067	487
0	661	4955.066603173844	488
0	662	4962.982694119878	489
0	665	4966.196097148568	490
0	666	4975.166627289625	491
0	667	4997.873728363592	492
0	668	5003.094841407701	493
0	669	5011.126209126913	494
0	670	5014.29598292577	495
0	671	5020.373830566936	496
0	672	5025.510686699577	497
0	673	5028.366375904608	498
0	674	5035.415869118365	499
0	675	5039.132026666644	500
0	676	5043.800670102277	501
0	677	5051.244452716254	502
0	678	5065.131225454926	503
0	679	5069.188488893595	504
0	682	5094.979620201455	505
0	683	5114.807746004193	506
0	684	5115.306902028456	507
0	685	5118.232408040368	508
0	686	5124.140760244414	509
0	687	5125.245919010434	510
0	688	5129.530329298342	511
0	689	5143.004817535251	512
0	690	5154.415250877784	513
0	691	5164.154036792583	514
0	692	5176.551017598748	515
0	693	5178.844189315115	516
0	694	5183.025105904551	517
0	695	5194.302710240283	518
0	696	5215.44177838675	519
0	699	5223.28734535593	520
0	700	5226.609951591717	521
0	701	5226.916969321829	522
0	702	5239.307334395612	523
0	703	5239.386487860673	524
0	704	5244.049458125049	525
0	705	5251.611120602952	526
0	706	5277.135885538427	527
0	707	5278.073439414526	528
0	708	5283.281228063232	529
0	709	5283.527364503943	530
0	710	5287.722157738634	531
0	711	5297.456883175094	532
0	712	5300.728986988358	533
0	713	5303.083045653404	534
0	714	5304.312671322283	535
0	717	5312.919818397422	536
0	718	5324.803110000297	537
0	719	5335.949220030288	538
0	720	5365.681303425104	539
0	721	5365.708372170891	540
0	724	5376.126816819101	541
0	725	5385.299534788221	542
0	726	5394.184821911476	543
0	727	5427.091310214071	544
0	728	5427.261466451366	545
0	729	5439.184624193557	546
0	730	5455.987448194371	547
0	731	5463.117012985653	548
0	734	5467.181141653128	549
0	735	5482.827707160103	550
0	736	5483.850724970199	551
0	737	5489.68532669325	552
0	738	5497.024026363475	553
0	741	5508.864303726945	554
0	742	5509.81714855567	555
0	743	5512.401741042846	556
0	744	5517.683180950064	557
0	745	5527.446101179749	558
0	746	5549.246305651307	559
0	747	5558.891303268907	560
0	748	5560.323790306761	561
0	749	5599.738377153025	562
0	750	5620.278901991661	563
0	751	5627.264937661124	564
0	752	5652.820114827765	565
0	753	5660.615465116072	566
0	754	5686.294791403094	567
0	757	5704.008324596296	568
0	758	5738.51842588989	569
0	761	5763.748600503438	570
0	762	5764.11559120625	571
0	763	5766.036546967736	572
0	764	5770.965334651405	573
0	767	5801.360650552744	574
0	768	5804.927813079478	575
0	769	5806.676915680436	576
0	770	5828.419244751779	577
0	771	5834.332272607474	578
0	772	5858.178426039782	579
0	773	5859.924704004582	580
0	774	5870.745722849422	581
0	775	5876.548618729254	582
1	33	170.772243719047	0
1	34	170.976499603038	0
1	35	170.976499603038	0
1	36	188.851376237425	0
1	37	188.851376237425	0
1	38	203.909218823799	0
1	39	203.909218823799	0
1	40	224.312361403218	0
1	41	224.312361403218	0
1	42	262.764580094636	0
1	43	262.764580094636	0
1	44	278.816975665251	1
1	45	285.006270261518	2
1	46	300.17163000142	3
1	47	301.430374095801	4
1	48	311.644692839293	5
1	49	313.191989644293	6
1	50	342.136194424164	7
1	51	349.514467341723	8
1	52	354.870124544002	9
1	53	357.942928065527	10
1	54	372.825476323044	11
1	55	378.916300554875	12
1	56	385.386243221777	11
1	57	385.386243221777	11
1	58	387.319647610997	12
1	59	387.509333303008	13
1	60	397.123142693666	14
1	61	406.593109465416	15
1	62	416.188589239098	16
1	63	444.967739451875	17
1	64	456.419128998876	18
1	65	460.874313949388	19
1	66	466.6196380168	20
1	67	475.1017871022	19
1	68	475.1017871022	19
1	69	478.580716011371	20
1	70	479.201868916035	21
1	71	488.722556166975	20
1	72	488.722556166975	20
1	73	490.190993591544	21
1	74	501.296968048416	22
1	75	503.659035109243	23
1	76	505.039321993528	24
1	77	508.828941636355	25
1	78	513.349962238601	26
1	79	521.794240173878	27
1	80	527.567483281943	28
1	81	572.112451743704	29
1	82	573.188802825265	30
1	83	575.531818013021	31
1	84	577.290953467277	32
1	85	587.878380618218	33
1	86	590.79918595089	34
1	87	597.078601760802	35
1	88	599.881371845592	36
1	89	601.612646407054	37
1	90	602.782200504979	38
1	91	613.462922476474	39
1	92	614.950045168995	40
1	93	617.138851134068	41
1	94	621.738990711471	42
1	95	627.709424634318	41
1	96	627.709424634318	41
1	97	638.942307288637	42
1	98	639.963756103886	43
1	99	658.16194529673	44
1	100	659.17229304982	45
1	101	663.754228948939	44
1	102	663.754228948939	44
1	103	696.662607645665	45
1	104	702.985973609623	46
1	105	722.074264309295	45
1	106	722.074264309295	45
1	107	740.605246454663	46
1	108	741.787649863738	45
1	109	741.787649863738	45
1	110	749.890031423677	46
1	111	763.3324841452	47
1	112	763.732247135783	48
1	113	767.05634954542	49
1	114	768.336917198532	50
1	115	771.848678092345	51
1	116	773.112564456598	52
1	117	776.939573945216	53
1	118	782.288417702785	54
1	119	782.951391717607	55
1	120	794.743286988259	56
1	121	803.104262307962	57
1	122	806.18841070894	58
1	123	813.59600021341	59
1	124	814.582503297593	60
1	125	823.161459708335	61
1	126	849.654018995099	62
1	127	853.489621136085	63
1	128	864.498080236993	64
1	129	865.911387372601	65
1	130	878.510725473691	66
1	131	881.927267143952	67
1	132	883.950771529624	68
1	133	890.86682610734	67
1	134	890.86682610734	67
1	135	892.782061949217	68
1	136	892.985186537173	69
1	137	910.642597261304	70
1	138	910.689662666227	71
1	139	919.40599118099	70
1	140	919.40599118099	70
1	141	922.016004085952	71
1	142	925.163220694498	72
1	143	938.450799432001	73
1	144	971.202231209149	74
1	145	974.06244093423	75
1	146	982.64637061252	76
1	147	991.612279320379	77
1	148	1000.104487436023	78
1	149	1002.628687364934	79
1	150	1025.202218866502	78
1	151	1025.202218866502	78
1	152	1032.81558730837	77
1	153	1032.81558730837	77
1	154	1033.151503933777	78
1	155	1039.077744208299	79
1	156	1057.812343006871	80
1	157	1069.834728679336	81
1	158	1073.364930012078	82
1	159	1078.27246618073	81
1	160	1078.27246618073	81
1	161	1090.174152057537	82
1	162	1095.224339535084	83
1	163	1116.519333495764	84
1	164	1125.224691759028	85
1	165	1146.57299625886	86
1	166	1158.366825595306	87
1	167	1171.285918283313	88
1	168	1178.243912892318	89
1	169	1207.581746833734	88
1	170	1207.581746833734	88
1	171	1209.4985964689	89
1	172	1219.826566575354	90
1	173	1225.340526476696	91
1	174	1234.664555280762	92
1	175	1234.858353094242	93
1	176	1238.44762525294	94
1	177	1249.240827239496	95
1	178	1252.666823486477	96
1	179	1262.290574044187	97
1	180	1267.890184744927	98
1	181	1269.345924529406	99
1	182	1272.64615730308	98
1	183	1272.64615730308	98
1	184	1272.88816585186	99
1	185	1281.327050577769	100
1	186	1290.264341360824	101
1	187	1298.805138717254	102
1	188	1309.395232571066	103
1	189	1319.953728657663	104
1	190	1325.599833668871	105
1	191	1348.286173595796	106
1	192	1352.867902435378	107
1	193	1357.059092529965	106
1	194	1357.059092529965	106
1	195	1358.592517949662	107
1	196	1371.130655064558	106
1	197	1371.130655064558	106
1	198	1380.841664521915	107
1	199	1381.915379584386	106
1	200	1381.915379584386	106
1	201	1397.250640301183	107
1	202	1409.420835254558	108
1	203	1410.476961690846	109
1	204	1424.307253688758	108
1	205	1424.307253688758	108
1	206	1435.669782991679	109
1	207	1448.195858240796	110
1	208	1515.849763440167	111
1	209	1517.46846430729	112
1	210	1537.727552478323	113
1	211	1539.500808229774	114
1	212	1549.060472468998	115
1	213	1550.382309565145	116
1	214	1551.622879865121	115
1	215	1551.622879865121	115
1	216	1569.221598431006	116
1	217	1585.688789444274	117
1	218	1594.107599061594	118
1	219	1599.336299362478	119
1	220	1600.053053205607	120
1	221	1612.007438868429	121
1	222	1618.050429586905	122
1	223	1630.853771625029	123
1	224	1647.075854470063	122
1	225	1647.075854470063	122
1	226	1650.981498987087	123
1	227	1672.860973554324	122
1	228	1672.860973554324	122
1	229	1688.081104906125	123
1	230	1689.439633618351	122
1	231	1689.439633618351	122
1	232	1707.446877281037	123
1	233	1707.564709600221	124
1	234	1710.53966299948	123
1	235	1710.53966299948	123
1	236	1712.027237805411	124
1	237	1725.120221445639	125
1	238	1727.00317119783	126
1	239	1734.364482197696	127
1	240	1734.923182726581	128
1	241	1737.154574807589	129
1	242	1737.341529511799	130
1	243	1742.771130115142	129
1	244	1742.771130115142	129
1	245	1753.125656732859	130
1	246	1755.660713784293	131
1	247	1759.89728479786	132
1	248	1786.219473423348	133
1	249	1798.407441456782	134
1	250	1798.731009503235	135
1	251	1800.530582918753	136
1	252	1810.245404499702	137
1	253	1814.913104548579	136
1	254	1814.913104548579	136
1	255	1818.854640866509	137
1	256	1821.571321569932	138
1	257	1848.784804129062	139
1	258	1851.849286219251	138
1	259	1851.849286219251	138
1	260	1858.303101204484	139
1	261	1865.973897750207	140
1	262	1874.887683519307	141
1	263	1887.985537232924	142
1	264	1891.724402191955	143
1	265	1896.803053418822	144
1	266	1899.158299153007	145
1	267	1901.218619637837	146
1	268	1930.109375556825	147
1	269	1943.562849889164	148
1	270	1950.305295585526	149
1	271	1952.885423224926	150
1	272	1955.820499744159	151
1	273	1956.418309373313	152
1	274	1962.117285026378	153
1	275	1965.853982970323	154
1	276	1968.183838753956	153
1	277	1968.183838753956	153
1	278	1977.772564006872	154
1	279	1982.516726910201	155
1	280	1984.496404263541	156
1	281	1984.746287796669	157
1	282	1985.442464507405	158
1	283	1996.817849562811	159
1	284	2002.863661746163	160
1	285	2010.554859757127	161
1	286	2033.253259914968	162
1	287	2039.824383770035	161
1	288	2039.824383770035	161
1	289	2079.649785178705	162
1	290	2082.094695399134	163
1	291	2092.973739735277	164
1	292	2096.02978875342	165
1	293	2096.238460939522	166
1	294	2110.442295495374	167
1	295	2114.299172435826	168
1	296	2119.135556310722	169
1	297	2128.010575595559	170
1	298	2133.873609772479	169
1	299	2133.873609772479	169
1	300	2145.792008963899	170
1	301	2155.707051892871	171
1	302	2157.98266730268	170
1	303	2157.98266730268	170
1	304	2176.31526430168	171
1	305	2179.511010850408	172
1	306	2195.508205268808	173
1	307	2197.561682956165	174
1	308	2205.002454998374	173
1	309	2205.002454998374	173
1	310	2228.093529652099	174
1	311	2239.724662486354	175
1	312	2242.151847423072	176
1	313	2244.084362070077	175
1	314	2244.084362070077	175
1	315	2268.918172047204	174
1	316	2268.918172047204	174
1	317	2271.596650197305	175
1	318	2284.420415338288	174
1	319	2284.420415338288	174
1	320	2284.721730126961	175
1	321	2287.651244711827	176
1	322	2290.05047990619	177
1	323	2297.352756558581	178
1	324	2297.612734010512	179
1	325	2299.93798419436	180
1	326	2305.466367900878	181
1	327	2310.153132660647	182
1	328	2316.381425758296	183
1	329	2319.633585938059	184
1	330	2322.188733092858	183
1	331	2322.188733092858	183
1	332	2328.471442498388	184
1	333	2339.16689703308	183
1	334	2339.16689703308	183
1	335	2348.411834511158	184
1	336	2349.662160410393	185
1	337	2356.947398837736	186
1	338	2358.363819185688	187
1	339	2363.645941956537	186
1	340	2363.645941956537	186
1	341	2370.981945920561	187
1	342	2376.024745253076	188
1	343	2383.934120563955	187
1	344	2383.934120563955	187
1	345	2384.358527659535	188
1	346	2386.383115296516	189
1	347	2387.94787300036	190
1	348	2394.643278908971	191
1	349	2399.037832813899	192
1	350	2427.244192298049	193
1	351	2441.739740062325	194
1	352	2447.425265976196	193
1	353	2447.425265976196	193
1	354	2455.549371018993	194
1	355	2478.954290625567	195
1	356	2479.825376458152	196
1	357	2487.859294084823	197
1	358	2496.641444872006	198
1	359	2529.326408880235	199
1	360	2532.781604717322	200
1	361	2535.536884087705	201
1	362	2536.593755828752	202
1	363	2536.759416772968	203
1	364	2563.285001928173	204
1	365	2574.369099470313	205
1	366	2589.747386615079	206
1	367	2593.05648542684	207
1	368	2601.885290876411	208
1	369	2602.546210983345	209
1	370	2605.608678537393	208
1	371	2605.608678537393	208
1	372	2609.194288478861	209
1	373	2635.16380885708	208
1	374	2635.16380885708	208
1	375	2647.134526309739	209
1	376	2668.050092035972	210
1	377	2672.17739070324	211
1	378	2673.383020497286	210
1	379	2673.383020497286	210
1	380	2704.766600475087	211
1	381	2707.402371603439	212
1	382	2737.224378358165	213
1	383	2765.59078029192	214
1	384	2781.645367922598	215
1	385	2786.469354666149	214
1	386	2786.469354666149	214
1	387	2791.600004356265	215
1	388	2812.337618987266	216
1	389	2815.805152025154	217
1	390	2834.706169006117	218
1	391	2844.326288272018	219
1	392	2844.459540720302	220