file 85280 1749145837                                           
version 3
run HighDemand-0-20250605-20:49:34-19934
attr configname HighDemand
attr datetime 20250605-20:49:34
attr datetimef 20250605-204934
attr experiment HighDemand
attr inifile omnetpp.ini
attr iterationvars ""
attr iterationvarsd ""
attr iterationvarsf ""
attr measurement ""
attr network smartparkingsystem.SmartParkingNetwork
attr processid 19934
attr repetition 0
attr replication #0
attr resultdir results
attr runnumber 0
attr seedset 0
config **.parkingLot.numSlots 20
config **.parkingLot.arrivalRate 0.1
config **.parkingLot.avgParkingDuration 1200.0
config network smartparkingsystem.SmartParkingNetwork
config sim-time-limit 7200s
config seed-set 0
config **.parkingLot.numSlots 20
config **.parkingLot.arrivalRate 0.05
config **.parkingLot.avgParkingDuration 600.0
config **.parkingLot.simulationTime 7200.0
config **.parkingLot.sensorMalfunctionRate 0.001
config **.parkingLot.sensorRepairTime 300.0
config output-vector-file results/HighDemand-0.vec
config output-scalar-file results/HighDemand-0.sca
config repeat 10

vector 0 SmartParkingNetwork.parkingLot vehicleArrival:vector ETV
attr recordingmode vector
attr title "Vehicle Arrivals"
vector 1 SmartParkingNetwork.parkingLot queueLength:vector ETV
attr recordingmode vector
attr title "Queue Length"
vector 2 SmartParkingNetwork.parkingLot occupiedSlots:vector ETV
attr recordingmode vector
attr title "Occupied Slots"
vector 3 SmartParkingNetwork.parkingLot utilizationRate:vector ETV
attr recordingmode vector
attr title "Utilization Rate"
0	1516 8 1 1 0 0 1 0 0 0 0
1	1524 8 1 1 0 0 1 0 0 0 0
2	1532 8 1 1 0 0 1 1 1 1 1
3	1540 11 1 1 0 0 1 0.05 0.05 0.05 0.0025
vector 4 SmartParkingNetwork.parkingLot waitingTime:vector ETV
attr recordingmode vector
attr title "Waiting Time"
1	1666 8 2 2 0 0 1 0 0 0 0
2	1674 8 2 2 0 0 1 1 1 1 1
3	1682 11 2 2 0 0 1 0.05 0.05 0.05 0.0025
4	1693 8 2 2 0 0 1 0 0 0 0
0	1701 22 3 3 12.559307580474 12.559307580474 1 1 1 1 1
1	1723 22 3 3 12.559307580474 12.559307580474 1 0 0 0 0
2	1745 22 3 3 12.559307580474 12.559307580474 1 2 2 2 4
3	1767 24 3 3 12.559307580474 12.559307580474 1 0.1 0.1 0.1 0.01
1	1791 22 4 4 12.559307580474 12.559307580474 1 0 0 0 0
2	1813 22 4 4 12.559307580474 12.559307580474 1 2 2 2 4
3	1835 24 4 4 12.559307580474 12.559307580474 1 0.1 0.1 0.1 0.01
4	1859 22 4 4 12.559307580474 12.559307580474 1 0 0 0 0
0	1881 22 5 5 21.791538895182 21.791538895182 1 2 2 2 4
1	1903 22 5 5 21.791538895182 21.791538895182 1 0 0 0 0
2	1925 22 5 5 21.791538895182 21.791538895182 1 3 3 3 9
3	1947 25 5 5 21.791538895182 21.791538895182 1 0.15 0.15 0.15 0.0225
1	1972 22 6 6 21.791538895182 21.791538895182 1 0 0 0 0
2	1994 22 6 6 21.791538895182 21.791538895182 1 3 3 3 9
3	2016 25 6 6 21.791538895182 21.791538895182 1 0.15 0.15 0.15 0.0225
4	2041 22 6 6 21.791538895182 21.791538895182 1 0 0 0 0
0	2063 22 7 7 29.663550295001 29.663550295001 1 3 3 3 9
1	2085 22 7 7 29.663550295001 29.663550295001 1 0 0 0 0
2	2107 22 7 7 29.663550295001 29.663550295001 1 4 4 4 16
3	2129 24 7 7 29.663550295001 29.663550295001 1 0.2 0.2 0.2 0.04
1	2153 22 8 8 29.663550295001 29.663550295001 1 0 0 0 0
2	2175 22 8 8 29.663550295001 29.663550295001 1 4 4 4 16
3	2197 24 8 8 29.663550295001 29.663550295001 1 0.2 0.2 0.2 0.04
4	2221 22 8 8 29.663550295001 29.663550295001 1 0 0 0 0
0	2243 22 9 9 35.174035161704 35.174035161704 1 4 4 4 16
1	2265 22 9 9 35.174035161704 35.174035161704 1 0 0 0 0
2	2287 22 9 9 35.174035161704 35.174035161704 1 5 5 5 25
3	2309 25 9 9 35.174035161704 35.174035161704 1 0.25 0.25 0.25 0.0625
1	2334 23 10 10 35.174035161704 35.174035161704 1 0 0 0 0
2	2357 23 10 10 35.174035161704 35.174035161704 1 5 5 5 25
3	2380 26 10 10 35.174035161704 35.174035161704 1 0.25 0.25 0.25 0.0625
4	2406 23 10 10 35.174035161704 35.174035161704 1 0 0 0 0
0	2429 23 11 11 45.555628168343 45.555628168343 1 5 5 5 25
1	2452 23 11 11 45.555628168343 45.555628168343 1 0 0 0 0
2	2475 23 11 11 45.555628168343 45.555628168343 1 6 6 6 36
3	2498 25 11 11 45.555628168343 45.555628168343 1 0.3 0.3 0.3 0.09
1	2523 23 12 12 45.555628168343 45.555628168343 1 0 0 0 0
2	2546 23 12 12 45.555628168343 45.555628168343 1 6 6 6 36
3	2569 25 12 12 45.555628168343 45.555628168343 1 0.3 0.3 0.3 0.09
4	2594 23 12 12 45.555628168343 45.555628168343 1 0 0 0 0
0	2617 23 13 13 51.310820137173 51.310820137173 1 6 6 6 36
1	2640 23 13 13 51.310820137173 51.310820137173 1 0 0 0 0
2	2663 23 13 13 51.310820137173 51.310820137173 1 7 7 7 49
3	2686 26 13 13 51.310820137173 51.310820137173 1 0.35 0.35 0.35 0.1225
1	2712 23 14 14 51.310820137173 51.310820137173 1 0 0 0 0
2	2735 23 14 14 51.310820137173 51.310820137173 1 7 7 7 49
3	2758 26 14 14 51.310820137173 51.310820137173 1 0.35 0.35 0.35 0.1225
4	2784 23 14 14 51.310820137173 51.310820137173 1 0 0 0 0
0	2807 23 15 15 73.546064357536 73.546064357536 1 7 7 7 49
1	2830 23 15 15 73.546064357536 73.546064357536 1 0 0 0 0
2	2853 23 15 15 73.546064357536 73.546064357536 1 8 8 8 64
3	2876 25 15 15 73.546064357536 73.546064357536 1 0.4 0.4 0.4 0.16
1	2901 23 16 16 73.546064357536 73.546064357536 1 0 0 0 0
2	2924 23 16 16 73.546064357536 73.546064357536 1 8 8 8 64
3	2947 25 16 16 73.546064357536 73.546064357536 1 0.4 0.4 0.4 0.16
4	2972 23 16 16 73.546064357536 73.546064357536 1 0 0 0 0
0	2995 24 17 17 106.695187156819 106.695187156819 1 8 8 8 64
1	3019 24 17 17 106.695187156819 106.695187156819 1 0 0 0 0
2	3043 24 17 17 106.695187156819 106.695187156819 1 9 9 9 81
3	3067 27 17 17 106.695187156819 106.695187156819 1 0.45 0.45 0.45 0.2025
1	3094 24 18 18 106.695187156819 106.695187156819 1 0 0 0 0
2	3118 24 18 18 106.695187156819 106.695187156819 1 9 9 9 81
3	3142 27 18 18 106.695187156819 106.695187156819 1 0.45 0.45 0.45 0.2025
4	3169 24 18 18 106.695187156819 106.695187156819 1 0 0 0 0
0	3193 24 19 19 111.531208206303 111.531208206303 1 9 9 9 81
1	3217 24 19 19 111.531208206303 111.531208206303 1 0 0 0 0
2	3241 25 19 19 111.531208206303 111.531208206303 1 10 10 10 100
3	3266 26 19 19 111.531208206303 111.531208206303 1 0.5 0.5 0.5 0.25
1	3292 24 20 20 111.531208206303 111.531208206303 1 0 0 0 0
2	3316 25 20 20 111.531208206303 111.531208206303 1 10 10 10 100
3	3341 26 20 20 111.531208206303 111.531208206303 1 0.5 0.5 0.5 0.25
4	3367 24 20 20 111.531208206303 111.531208206303 1 0 0 0 0
0	3391 25 21 21 127.220169382533 127.220169382533 1 10 10 10 100
1	3416 24 21 21 127.220169382533 127.220169382533 1 0 0 0 0
2	3440 25 21 21 127.220169382533 127.220169382533 1 11 11 11 121
3	3465 27 21 21 127.220169382533 127.220169382533 1 0.55 0.55 0.55 0.3025
1	3492 24 22 22 127.220169382533 127.220169382533 1 0 0 0 0
2	3516 25 22 22 127.220169382533 127.220169382533 1 11 11 11 121
3	3541 27 22 22 127.220169382533 127.220169382533 1 0.55 0.55 0.55 0.3025
4	3568 24 22 22 127.220169382533 127.220169382533 1 0 0 0 0
0	3592 25 23 23 134.746910515661 134.746910515661 1 11 11 11 121
1	3617 24 23 23 134.746910515661 134.746910515661 1 0 0 0 0
2	3641 25 23 23 134.746910515661 134.746910515661 1 12 12 12 144
3	3666 26 23 23 134.746910515661 134.746910515661 1 0.6 0.6 0.6 0.36
1	3692 24 24 24 134.746910515661 134.746910515661 1 0 0 0 0
2	3716 25 24 24 134.746910515661 134.746910515661 1 12 12 12 144
3	3741 26 24 24 134.746910515661 134.746910515661 1 0.6 0.6 0.6 0.36
4	3767 24 24 24 134.746910515661 134.746910515661 1 0 0 0 0
0	3791 25 25 25 143.141239044663 143.141239044663 1 12 12 12 144
1	3816 24 25 25 143.141239044663 143.141239044663 1 0 0 0 0
2	3840 25 25 25 143.141239044663 143.141239044663 1 13 13 13 169
3	3865 27 25 25 143.141239044663 143.141239044663 1 0.65 0.65 0.65 0.4225
1	3892 24 26 26 143.141239044663 143.141239044663 1 0 0 0 0
2	3916 25 26 26 143.141239044663 143.141239044663 1 13 13 13 169
3	3941 27 26 26 143.141239044663 143.141239044663 1 0.65 0.65 0.65 0.4225
4	3968 24 26 26 143.141239044663 143.141239044663 1 0 0 0 0
vector 5 SmartParkingNetwork.parkingLot vehicleDeparture:vector ETV
attr recordingmode vector
attr title "Vehicle Departures"
1	4118 24 27 27 143.607667269234 143.607667269234 1 0 0 0 0
2	4142 25 27 27 143.607667269234 143.607667269234 1 12 12 12 144
3	4167 26 27 27 143.607667269234 143.607667269234 1 0.6 0.6 0.6 0.36
5	4193 24 27 27 143.607667269234 143.607667269234 1 7 7 7 49
0	4217 25 28 28 169.123779903153 169.123779903153 1 13 13 13 169
1	4242 24 28 28 169.123779903153 169.123779903153 1 0 0 0 0
2	4266 25 28 28 169.123779903153 169.123779903153 1 13 13 13 169
3	4291 27 28 28 169.123779903153 169.123779903153 1 0.65 0.65 0.65 0.4225
1	4318 24 29 29 169.123779903153 169.123779903153 1 0 0 0 0
2	4342 25 29 29 169.123779903153 169.123779903153 1 13 13 13 169
3	4367 27 29 29 169.123779903153 169.123779903153 1 0.65 0.65 0.65 0.4225
4	4394 24 29 29 169.123779903153 169.123779903153 1 0 0 0 0
0	4418 25 30 30 169.860633457804 169.860633457804 1 14 14 14 196
1	4443 24 30 30 169.860633457804 169.860633457804 1 0 0 0 0
2	4467 25 30 30 169.860633457804 169.860633457804 1 14 14 14 196
3	4492 26 30 30 169.860633457804 169.860633457804 1 0.7 0.7 0.7 0.49
1	4518 24 31 31 169.860633457804 169.860633457804 1 0 0 0 0
2	4542 25 31 31 169.860633457804 169.860633457804 1 14 14 14 196
3	4567 26 31 31 169.860633457804 169.860633457804 1 0.7 0.7 0.7 0.49
4	4593 24 31 31 169.860633457804 169.860633457804 1 0 0 0 0
0	4617 25 32 32 170.772243719047 170.772243719047 1 15 15 15 225
1	4642 24 32 32 170.772243719047 170.772243719047 1 0 0 0 0
2	4666 25 32 32 170.772243719047 170.772243719047 1 15 15 15 225
3	4691 27 32 32 170.772243719047 170.772243719047 1 0.75 0.75 0.75 0.5625
0	4718 15586 34 775 170.976499603038 5876.548618729254 567 16 582 169533 65880675
1	20304 20358 33 775 170.772243719047 5876.548618729254 743 0 477 173155 54058441
2	40662 19787 33 775 170.772243719047 5876.548618729254 743 15 20 14835 296285
3	60449 19067 33 775 170.772243719047 5876.548618729254 743 0.75 1 741.75 740.7125
4	79516 3505 33 766 170.772243719047 5771.215024790995 91 0 4788.5686541785 194570.65510409 589615895.87247
5	83021 2258 56 765 385.386243221777 5771.215024790995 85 0 99 3886 244962

