version 3
run SensorProblems-0-20250605-22:12:00-29882
attr configname SensorProblems
attr datetime 20250605-22:12:00
attr datetimef 20250605-221200
attr experiment SensorProblems
attr inifile omnetpp.ini
attr iterationvars ""
attr iterationvarsd ""
attr iterationvarsf ""
attr measurement ""
attr network smartparkingsystem.SmartParkingNetwork
attr processid 29882
attr repetition 0
attr replication #0
attr resultdir results
attr runnumber 0
attr seedset 0
config description "Scenario with frequent sensor malfunctions"
config **.parkingLot.numSlots 15
config **.parkingLot.arrivalRate 0.06
config **.parkingLot.sensorMalfunctionRate 0.01
config **.parkingLot.sensorRepairTime 600.0
config network smartparkingsystem.SmartParkingNetwork
config sim-time-limit 7200s
config seed-set 0
config **.parkingLot.numSlots 20
config **.parkingLot.arrivalRate 0.05
config **.parkingLot.avgParkingDuration 1800.0
config **.parkingLot.simulationTime 7200.0
config **.parkingLot.sensorMalfunctionRate 0.001
config **.parkingLot.sensorRepairTime 300.0
config **.queue.maxQueueSize 50
config **.queue.displayStrings "\"i=block/queue;is=l\""
config **.controller.displayStrings "\"i=block/control;is=l\""
config **.slot[*].displayStrings "\"i=misc/square;is=l\""
config output-vector-file results/SensorProblems-0.vec
config output-scalar-file results/SensorProblems-0.sca
config repeat 10

vector 0 SmartParkingNetwork.parkingLot vehicleArrival:vector ETV
attr recordingmode vector
attr title "Vehicle Arrivals"
vector 1 SmartParkingNetwork.parkingLot occupiedSlots:vector ETV
attr recordingmode vector
attr title "Occupied Slots"
vector 2 SmartParkingNetwork.parkingLot utilizationRate:vector ETV
attr recordingmode vector
attr title "Utilization Rate"
vector 3 SmartParkingNetwork.parkingLot.slot[0] slotOccupied:vector ETV
attr recordingmode vector
attr title "Slot Occupied"
vector 4 SmartParkingNetwork.parkingLot.slot[1] slotOccupied:vector ETV
attr recordingmode vector
attr title "Slot Occupied"
vector 5 SmartParkingNetwork.parkingLot.slot[2] slotOccupied:vector ETV
attr recordingmode vector
attr title "Slot Occupied"
vector 6 SmartParkingNetwork.parkingLot.slot[3] slotOccupied:vector ETV
attr recordingmode vector
attr title "Slot Occupied"
vector 7 SmartParkingNetwork.parkingLot.slot[4] slotOccupied:vector ETV
attr recordingmode vector
attr title "Slot Occupied"
vector 8 SmartParkingNetwork.parkingLot.slot[5] slotOccupied:vector ETV
attr recordingmode vector
attr title "Slot Occupied"
vector 9 SmartParkingNetwork.parkingLot.slot[6] slotOccupied:vector ETV
attr recordingmode vector
attr title "Slot Occupied"
vector 10 SmartParkingNetwork.parkingLot.slot[7] slotOccupied:vector ETV
attr recordingmode vector
attr title "Slot Occupied"
vector 11 SmartParkingNetwork.parkingLot.slot[8] slotOccupied:vector ETV
attr recordingmode vector
attr title "Slot Occupied"
vector 12 SmartParkingNetwork.parkingLot.slot[9] slotOccupied:vector ETV
attr recordingmode vector
attr title "Slot Occupied"
vector 13 SmartParkingNetwork.parkingLot.slot[10] slotOccupied:vector ETV
attr recordingmode vector
attr title "Slot Occupied"
vector 14 SmartParkingNetwork.parkingLot.slot[11] slotOccupied:vector ETV
attr recordingmode vector
attr title "Slot Occupied"
vector 15 SmartParkingNetwork.parkingLot vehicleDeparture:vector ETV
attr recordingmode vector
attr title "Vehicle Departures"
vector 16 SmartParkingNetwork.parkingLot waitingTime:vector ETV
attr recordingmode vector
attr title "Waiting Time"
vector 17 SmartParkingNetwork.parkingLot.slot[12] slotOccupied:vector ETV
attr recordingmode vector
attr title "Slot Occupied"
vector 18 SmartParkingNetwork.parkingLot.slot[13] slotOccupied:vector ETV
attr recordingmode vector
attr title "Slot Occupied"
vector 19 SmartParkingNetwork.parkingLot.slot[14] slotOccupied:vector ETV
attr recordingmode vector
attr title "Slot Occupied"
vector 20 SmartParkingNetwork.parkingLot.queue queueLength:vector ETV
attr recordingmode vector
attr title "Queue Length"
vector 21 SmartParkingNetwork.parkingLot queueLength:vector ETV
attr recordingmode vector
attr title "Queue Length"
vector 22 SmartParkingNetwork.parkingLot.queue vehicleQueued:vector ETV
attr recordingmode vector
attr title "Vehicles Queued"
vector 23 SmartParkingNetwork.parkingLot.queue vehicleDequeued:vector ETV
attr recordingmode vector
attr title "Vehicles Dequeued"
0	1	0	0
0	3	20.93217930079	1
0	5	36.31923149197	2
0	7	49.439250491669	3
0	9	58.623391936174	4
0	11	75.926046947238	5
0	13	85.518033561954	6
0	15	122.576773929226	7
0	17	177.825311928031	8
0	19	185.885347010505	9
0	21	212.033615637555	10
0	23	224.578184192768	11
0	28	238.568731741105	12
0	30	281.872966505254	13
0	32	283.101055763005	14
0	34	284.62040619841	15
0	36	284.960832671728	16
0	38	314.752293729039	17
0	40	317.272807956789	18
0	42	381.359839109153	19
0	44	408.259873690696	20
0	46	433.535473257199	21
0	48	454.78926829426	22
0	50	457.368096302594	23
0	52	481.057507637489	24
0	54	489.98360297462	25
0	56	493.420324341795	26
0	58	503.571698061513	27
0	60	505.992998516383	28
0	62	522.016014167479	29
0	64	526.206713035392	30
0	66	574.17196339002	31
0	68	584.13439800366	32
0	70	593.709938116014	33
0	72	595.452625212267	34
0	74	613.767833004783	35
0	76	616.891600771748	36
0	78	619.192078912222	37
0	80	634.793104908412	38
0	82	648.866901467207	39
0	84	665.631418219983	40
0	86	667.425336689251	41
0	88	684.225657446253	42
0	90	701.871369364489	43
0	92	710.789113982543	44
0	94	715.460397457193	45
0	102	722.335417955901	46
0	104	740.136621241726	47
0	112	765.247210129601	48
0	114	772.914109425272	49
0	116	773.14185239912	50
0	118	803.472167720526	51
0	120	863.031973926266	52
0	122	873.570917199529	53
0	124	874.526365973258	54
0	126	896.930453842463	55
0	128	906.645093656912	56
0	130	908.779373078766	57
0	132	919.706811151493	58
0	134	926.085160299189	59
0	142	967.817023350609	60
0	144	987.470182135029	61
0	146	1020.857524176815	62
0	154	1033.203506684266	63
0	156	1075.541915150245	64
0	158	1119.696180628184	65
0	160	1119.852859805919	66
0	162	1122.208371698598	67
0	170	1152.896412890049	68
0	172	1156.268920199503	69
0	174	1169.682210196193	70
0	176	1199.111228069744	71
0	178	1201.750253173586	72
0	180	1215.801637042726	73
0	182	1236.076781266669	74
0	184	1241.749226903923	75
0	186	1251.214296128594	76
0	188	1274.731369616834	77
0	190	1283.137099726631	78
0	192	1320.865992657645	79
0	194	1337.843638157959	80
0	202	1374.868753132528	81
0	204	1393.86221919141	82
0	212	1425.086550522363	83
0	214	1445.123859976472	84
0	216	1469.404169285875	85
0	218	1478.249544229484	86
0	220	1497.004244510213	87
0	222	1501.79441911138	88
0	224	1508.056733151493	89
0	226	1564.129574035679	90
0	228	1578.927264209625	91
0	230	1596.891178945232	92
0	232	1609.588975133497	93
0	234	1613.956595828087	94
0	242	1622.328442465769	95
0	244	1638.402668557334	96
0	246	1638.725664913134	97
0	248	1644.70778517763	98
0	250	1662.696455155224	99
0	252	1668.406448900192	100
0	254	1684.446033163042	101
0	256	1693.778717664275	102
0	258	1696.204950638406	103
0	260	1702.10868617583	104
0	262	1716.173494052344	105
0	264	1731.068978690769	106
0	266	1745.303640951486	107
0	268	1762.953797374506	108
0	270	1780.551290852168	109
0	272	1789.961465870848	110
0	280	1827.772032415723	111
0	282	1835.40824714836	112
0	284	1904.371743156866	113
0	286	1909.397841710588	114
0	288	1922.232456036359	115
0	290	1932.133681008423	116
0	292	1933.881711601763	117
0	294	1941.120805867493	118
0	296	1951.678516162871	119
0	298	1982.340729247496	120
0	300	2021.510350743341	121
0	302	2022.14839929142	122
0	304	2033.980364745153	123
0	306	2037.02267477653	124
0	308	2062.186399036686	125
0	310	2095.552840628785	126
0	312	2104.386221931063	127
0	320	2106.899405434294	128
0	322	2107.462518526826	129
0	324	2127.386494631529	130
0	326	2137.458145828989	131
0	334	2158.797049225862	132
0	342	2192.343261495959	133
0	344	2192.622724262495	134
0	346	2192.819111461135	135
0	352	2200.256658469786	136
0	356	2222.078297870166	137
0	358	2228.988506914484	138
0	360	2240.196182195044	139
0	362	2247.095830906255	140
0	364	2250.392989363906	141
0	366	2253.518305217285	142
0	368	2263.894927616925	143
0	370	2298.495445290972	144
0	372	2346.571183431085	145
0	374	2362.190162059808	146
0	376	2377.322895848551	147
0	378	2402.836749619673	148
0	380	2414.390079111966	149
0	382	2415.251460875224	150
0	384	2435.267642650923	151
0	392	2516.586524117482	152
0	394	2521.769320866979	153
0	396	2534.553981776518	154
0	398	2549.410291391685	155
0	400	2571.240047581046	156
0	402	2577.471489179431	157
0	410	2585.935907890876	158
0	412	2589.861317447851	159
0	414	2593.975638594498	160
0	416	2608.025284851405	161
0	418	2618.053267960145	162
0	420	2676.627912635756	163
0	422	2695.646877683412	164
0	424	2697.132782516666	165
0	426	2698.100655218599	166
0	428	2709.252550613431	167
0	430	2744.730385522289	168
0	438	2807.175295752711	169
0	440	2823.199288612231	170
0	442	2823.615761167444	171
0	444	2824.776055685337	172
0	446	2843.735030777681	173
0	448	2853.811384416602	174
0	450	2866.630047768209	175
0	452	2904.460714697944	176
0	466	2981.788256804173	177
0	468	2985.863107171555	178
0	470	3025.345076685505	179
0	472	3025.692863662341	180
0	474	3049.365921255427	181
0	476	3055.794049489514	182
0	478	3063.854689281008	183
0	480	3078.64638808907	184
0	488	3108.282110369637	185
0	490	3124.807181917924	186
0	492	3131.0365701482	187
0	494	3140.272750632335	188
0	496	3176.368811980245	189
0	508	3195.353106158126	190
0	512	3205.503849703274	191
0	514	3209.549157931137	192
0	516	3213.893160087411	193
0	524	3249.272270986443	194
0	526	3255.5460935118	195
0	528	3267.716554599118	196
0	530	3268.149850352337	197
0	532	3272.025267325417	198
0	534	3281.239240169614	199
0	536	3289.050514769229	200
0	538	3299.43100326531	201
0	540	3304.851270231582	202
0	542	3319.581031165464	203
0	544	3352.815017853414	204
0	546	3354.898894352139	205
0	548	3367.040958397711	206
0	556	3369.401658977631	207
0	558	3390.431870202419	208
0	560	3400.799152187106	209
0	562	3431.386875569432	210
0	570	3435.207614322882	211
0	572	3438.21218598252	212
0	580	3445.536442490733	213
0	582	3492.547041630983	214
0	584	3515.45275853799	215
0	586	3517.072219844107	216
0	588	3521.158854721479	217
0	596	3544.214129157332	218
0	604	3566.14123346228	219
0	618	3620.616173475995	220
0	620	3626.252085390069	221
0	622	3628.013538291813	222
0	624	3641.532555328945	223
0	626	3641.687272401912	224
0	628	3671.520432476598	225
0	630	3740.78661740265	226
0	632	3761.048125291959	227
0	634	3764.388828543388	228
0	636	3776.359603211856	229
0	638	3790.835698736286	230
0	640	3816.652560055536	231
0	642	3832.196090976684	232
0	644	3836.303021346897	233
0	646	3846.424342823888	234
0	654	3881.605822396934	235
0	656	3892.902522431184	236
0	658	3919.660168482315	237
0	660	3936.251229205093	238
0	662	3970.813920256761	239
0	664	3976.593141986574	240
0	666	4008.094836954845	241
0	668	4024.128369064679	242
0	670	4024.350456478486	243
0	672	4031.459386679094	244
0	674	4034.131621587204	245
0	688	4100.930782501777	246
0	690	4111.777404874429	247
0	692	4111.845010229781	248
0	694	4119.508198859378	249
0	696	4121.961949481263	250
0	698	4150.739172476967	251
0	700	4154.248060613702	252
0	702	4166.182149246929	253
0	704	4170.415672219432	254
0	706	4172.131811614753	255
0	708	4205.163317299901	256
0	716	4265.312334049631	257
0	718	4319.311716831312	258
0	720	4328.144409819178	259
0	722	4335.563565475951	260
0	724	4344.063412706774	261
0	726	4350.051644458876	262
0	728	4374.928847195416	263
0	730	4418.371710567431	264
0	736	4424.930084086143	265
0	746	4475.844413736262	266
0	748	4476.035967906404	267
0	750	4482.090004888101	268
0	752	4517.82976262999	269
0	754	4522.638307802458	270
0	756	4541.494620595865	271
0	758	4569.210716940435	272
0	760	4578.642292634349	273
0	762	4601.890110822068	274
0	770	4631.383774542233	275
0	772	4639.325084252197	276
0	774	4644.577751397461	277
0	776	4646.927216137712	278
0	778	4647.876658345493	279
0	780	4653.859346985104	280
0	782	4658.925539638918	281
0	784	4669.076613894312	282
0	786	4688.238970356808	283
0	788	4708.063907879057	284
0	790	4713.620630185314	285
0	792	4721.585929977166	286
0	800	4724.916855609177	287
0	808	4750.81261397638	288
0	810	4768.79472911804	289
0	818	4793.931649645157	290
0	820	4818.97186287367	291
0	822	4822.246227638618	292
0	830	4823.453212807194	293
0	832	4823.615469629536	294
0	834	4831.338636755203	295
0	836	4834.996439436767	296
0	838	4845.26176083317	297
0	840	4846.022394991429	298
0	842	4872.82935914286	299
0	844	4874.164006741927	300
0	846	4886.356429060805	301
0	848	4892.463950591348	302
0	850	4906.825075454602	303
0	852	4960.238555948131	304
0	854	4977.525974183178	305
0	856	4978.126021345668	306
0	858	4987.506441375954	307
0	866	4999.396179422635	308
0	868	5012.200401787092	309
0	870	5029.671886869694	310
0	872	5042.585926528093	311
0	874	5049.153552727209	312
0	876	5051.8037530072	313
0	878	5054.707064950252	314
0	880	5057.016845307303	315
0	882	5071.432480464457	316
0	884	5073.045771669592	317
0	886	5113.279378844725	318
0	888	5114.722995418839	319
0	896	5141.578528737514	320
0	898	5176.522466629556	321
0	900	5215.586960642865	322
0	902	5235.108022225315	323
0	904	5255.153251955804	324
0	906	5261.771267789478	325
0	908	5285.334323281802	326
0	910	5302.180476000122	327
0	912	5306.754868033515	328
0	914	5309.671452170485	329
0	916	5336.197387550371	330
0	936	5389.501637163205	331
0	938	5399.714061244269	332
0	946	5450.931981624024	333
0	948	5461.116274312117	334
0	956	5477.316455829816	335
0	958	5505.967611026291	336
0	960	5587.359260865378	337
0	962	5588.839800576287	338
0	964	5590.493492684351	339
0	966	5607.227678915655	340
0	968	5656.924006537759	341
0	976	5702.934080799147	342
0	978	5712.8187740879	343
0	980	5744.330926661757	344
0	982	5744.895457582464	345
0	990	5798.12482212717	346
0	992	5805.442771886966	347
0	994	5813.72959332601	348
0	996	5826.379006230154	349
0	998	5857.489680733166	350
0	1000	5870.29739035635	351
0	1002	5889.302038305001	352
0	1004	5904.960404736054	353
0	1006	5906.688252013421	354
0	1008	5908.297273330549	355
0	1010	5909.2571552775	356
0	1012	5910.765613113305	357
0	1014	5915.277686292259	358
0	1016	5945.77005555657	359
0	1018	5958.085389222223	360
0	1020	5970.079470850365	361
0	1028	5987.568506949148	362
0	1030	6000.677825147343	363
0	1032	6004.843672091506	364
0	1040	6009.709439953653	365
0	1042	6012.050701902903	366
0	1044	6023.306633072444	367
0	1046	6089.932691017778	368
0	1048	6094.608956454065	369
0	1050	6102.424311908612	370
0	1052	6103.203226937536	371
0	1054	6109.389255617554	372
0	1056	6139.071500199079	373
0	1058	6166.491223983652	374
0	1066	6183.519863107144	375
0	1068	6191.170328565268	376
0	1070	6216.652643077132	377
0	1072	6222.323263404023	378
0	1074	6226.928349952815	379
0	1076	6245.031738472103	380
0	1078	6249.739183671409	381
0	1080	6268.009059688232	382
0	1082	6280.148685905444	383
1	1	0	1
1	3	20.93217930079	2
1	5	36.31923149197	3
1	7	49.439250491669	4
1	9	58.623391936174	5
1	11	75.926046947238	6
1	13	85.518033561954	7
1	15	122.576773929226	8
1	17	177.825311928031	9
1	19	185.885347010505	10
1	21	212.033615637555	11
1	23	224.578184192768	12
1	26	227.669178296773	11
1	28	238.568731741105	12
1	30	281.872966505254	13
1	32	283.101055763005	14
1	34	284.62040619841	15
1	36	284.960832671728	15
1	38	314.752293729039	15
1	40	317.272807956789	15
1	42	381.359839109153	15
1	44	408.259873690696	15
1	46	433.535473257199	15
1	48	454.78926829426	15
1	50	457.368096302594	15
1	52	481.057507637489	15
1	54	489.98360297462	15
1	56	493.420324341795	15
1	58	503.571698061513	15
1	60	505.992998516383	15
1	62	522.016014167479	15
1	64	526.206713035392	15
1	66	574.17196339002	15
1	68	584.13439800366	15
1	70	593.709938116014	15
1	72	595.452625212267	15
1	74	613.767833004783	15
1	76	616.891600771748	15
1	78	619.192078912222	15
1	80	634.793104908412	15
1	82	648.866901467207	15
1	84	665.631418219983	15
1	86	667.425336689251	15
1	88	684.225657446253	15
1	90	701.871369364489	15
1	92	710.789113982543	15
1	94	715.460397457193	15
1	97	721.204484009494	14
1	99	721.204484009494	14
1	100	722.204484009494	15
1	102	722.335417955901	15
1	104	740.136621241726	15
1	107	750.866365443265	14
1	109	750.866365443265	14
1	110	751.866365443265	15
1	112	765.247210129601	15
1	114	772.914109425272	15
1	116	773.14185239912	15
1	118	803.472167720526	15
1	120	863.031973926266	15
1	122	873.570917199529	15
1	124	874.526365973258	15
1	126	896.930453842463	15
1	128	906.645093656912	15
1	130	908.779373078766	15
1	132	919.706811151493	15
1	134	926.085160299189	15
1	137	949.156741646201	14
1	139	949.156741646201	14
1	140	950.156741646201	15
1	142	967.817023350609	15
1	144	987.470182135029	15
1	146	1020.857524176815	15
1	149	1023.941448999708	14
1	151	1023.941448999708	14
1	152	1024.941448999708	15
1	154	1033.203506684266	15
1	156	1075.541915150245	15
1	158	1119.696180628184	15
1	160	1119.852859805919	15
1	162	1122.208371698598	15
1	165	1136.538347969718	14
1	167	1136.538347969718	14
1	168	1137.538347969718	15
1	170	1152.896412890049	15
1	172	1156.268920199503	15
1	174	1169.682210196193	15
1	176	1199.111228069744	15
1	178	1201.750253173586	15
1	180	1215.801637042726	15
1	182	1236.076781266669	15
1	184	1241.749226903923	15
1	186	1251.214296128594	15
1	188	1274.731369616834	15
1	190	1283.137099726631	15
1	192	1320.865992657645	15
1	194	1337.843638157959	15
1	197	1354.888773862061	14
1	199	1354.888773862061	14
1	200	1355.888773862061	15
1	202	1374.868753132528	15
1	204	1393.86221919141	15
1	207	1401.566805190762	14
1	209	1401.566805190762	14
1	210	1402.566805190762	15
1	212	1425.086550522363	15
1	214	1445.123859976472	15
1	216	1469.404169285875	15
1	218	1478.249544229484	15
1	220	1497.004244510213	15
1	222	1501.79441911138	15
1	224	1508.056733151493	15
1	226	1564.129574035679	15
1	228	1578.927264209625	15
1	230	1596.891178945232	15
1	232	1609.588975133497	15
1	234	1613.956595828087	15
1	237	1617.408699271094	14
1	239	1617.408699271094	14
1	240	1618.408699271094	15
1	242	1622.328442465769	15
1	244	1638.402668557334	15
1	246	1638.725664913134	15
1	248	1644.70778517763	15
1	250	1662.696455155224	15
1	252	1668.406448900192	15
1	254	1684.446033163042	15
1	256	1693.778717664275	15
1	258	1696.204950638406	15
1	260	1702.10868617583	15
1	262	1716.173494052344	15
1	264	1731.068978690769	15
1	266	1745.303640951486	15
1	268	1762.953797374506	15
1	270	1780.551290852168	15
1	272	1789.961465870848	15
1	275	1817.234959444219	14
1	277	1817.234959444219	14
1	278	1818.234959444219	15
1	280	1827.772032415723	15
1	282	1835.40824714836	15
1	284	1904.371743156866	15
1	286	1909.397841710588	15
1	288	1922.232456036359	15
1	290	1932.133681008423	15
1	292	1933.881711601763	15
1	294	1941.120805867493	15
1	296	1951.678516162871	15
1	298	1982.340729247496	15
1	300	2021.510350743341	15
1	302	2022.14839929142	15
1	304	2033.980364745153	15
1	306	2037.02267477653	15
1	308	2062.186399036686	15
1	310	2095.552840628785	15
1	312	2104.386221931063	15
1	315	2105.233252466801	14
1	317	2105.233252466801	14
1	318	2106.233252466801	15
1	320	2106.899405434294	15
1	322	2107.462518526826	15
1	324	2127.386494631529	15
1	326	2137.458145828989	15
1	329	2139.014476327793	14
1	331	2139.014476327793	14
1	332	2140.014476327793	15
1	334	2158.797049225862	15
1	337	2164.922921152976	14
1	339	2164.922921152976	14
1	340	2165.922921152976	15
1	342	2192.343261495959	15
1	344	2192.622724262495	15
1	346	2192.819111461135	15
1	349	2200.066345714953	14
1	351	2200.066345714953	14
1	352	2200.256658469786	14
1	354	2201.066345714953	15
1	356	2222.078297870166	15
1	358	2228.988506914484	15
1	360	2240.196182195044	15
1	362	2247.095830906255	15
1	364	2250.392989363906	15
1	366	2253.518305217285	15
1	368	2263.894927616925	15
1	370	2298.495445290972	15
1	372	2346.571183431085	15
1	374	2362.190162059808	15
1	376	2377.322895848551	15
1	378	2402.836749619673	15
1	380	2414.390079111966	15
1	382	2415.251460875224	15
1	384	2435.267642650923	15
1	387	2492.912026717687	14
1	389	2492.912026717687	14
1	390	2493.912026717687	15
1	392	2516.586524117482	15
1	394	2521.769320866979	15
1	396	2534.553981776518	15
1	398	2549.410291391685	15
1	400	2571.240047581046	15
1	402	2577.471489179431	15
1	405	2579.301759653534	14
1	407	2579.301759653534	14
1	408	2580.301759653534	15
1	410	2585.935907890876	15
1	412	2589.861317447851	15
1	414	2593.975638594498	15
1	416	2608.025284851405	15
1	418	2618.053267960145	15
1	420	2676.627912635756	15
1	422	2695.646877683412	15
1	424	2697.132782516666	15
1	426	2698.100655218599	15
1	428	2709.252550613431	15
1	430	2744.730385522289	15
1	433	2790.069190431913	14
1	435	2790.069190431913	14
1	436	2791.069190431913	15
1	438	2807.175295752711	15
1	440	2823.199288612231	15
1	442	2823.615761167444	15
1	444	2824.776055685337	15
1	446	2843.735030777681	15
1	448	2853.811384416602	15
1	450	2866.630047768209	15
1	452	2904.460714697944	15
1	455	2946.497824431727	14
1	457	2946.497824431727	14
1	458	2947.497824431727	15
1	461	2973.285423100261	14
1	463	2973.285423100261	14
1	464	2974.285423100261	15
1	466	2981.788256804173	15
1	468	2985.863107171555	15
1	470	3025.345076685505	15
1	472	3025.692863662341	15
1	474	3049.365921255427	15
1	476	3055.794049489514	15
1	478	3063.854689281008	15
1	480	3078.64638808907	15
1	483	3086.092945939753	14
1	485	3086.092945939753	14
1	486	3087.092945939753	15
1	488	3108.282110369637	15
1	490	3124.807181917924	15
1	492	3131.0365701482	15
1	494	3140.272750632335	15
1	496	3176.368811980245	15
1	499	3182.228443048132	14
1	501	3182.228443048132	14
1	502	3183.228443048132	15
1	505	3194.466147690621	14
1	507	3194.466147690621	14
1	508	3195.353106158126	14
1	510	3195.466147690621	15
1	512	3205.503849703274	15
1	514	3209.549157931137	15
1	516	3213.893160087411	15
1	519	3222.013776222473	14
1	521	3222.013776222473	14
1	522	3223.013776222473	15
1	524	3249.272270986443	15
1	526	3255.5460935118	15
1	528	3267.716554599118	15
1	530	3268.149850352337	15
1	532	3272.025267325417	15
1	534	3281.239240169614	15
1	536	3289.050514769229	15
1	538	3299.43100326531	15
1	540	3304.851270231582	15
1	542	3319.581031165464	15
1	544	3352.815017853414	15
1	546	3354.898894352139	15
1	548	3367.040958397711	15
1	551	3368.219761035194	14
1	553	3368.219761035194	14
1	554	3369.219761035194	15
1	556	3369.401658977631	15
1	558	3390.431870202419	15
1	560	3400.799152187106	15
1	562	3431.386875569432	15
1	565	3431.5745480566	14
1	567	3431.5745480566	14
1	568	3432.5745480566	15
1	570	3435.207614322882	15
1	572	3438.21218598252	15
1	575	3439.749442578734	14
1	577	3439.749442578734	14
1	578	3440.749442578734	15
1	580	3445.536442490733	15
1	582	3492.547041630983	15
1	584	3515.45275853799	15
1	586	3517.072219844107	15
1	588	3521.158854721479	15
1	591	3536.937642200144	14
1	593	3536.937642200144	14
1	594	3537.937642200144	15
1	596	3544.214129157332	15
1	599	3549.100836084003	14
1	601	3549.100836084003	14
1	602	3550.100836084003	15
1	604	3566.14123346228	15
1	607	3593.002481524077	14
1	609	3593.002481524077	14
1	610	3594.002481524077	15
1	613	3608.400513997008	14
1	615	3608.400513997008	14
1	616	3609.400513997008	15
1	618	3620.616173475995	15
1	620	3626.252085390069	15
1	622	3628.013538291813	15
1	624	3641.532555328945	15
1	626	3641.687272401912	15
1	628	3671.520432476598	15
1	630	3740.78661740265	15
1	632	3761.048125291959	15
1	634	3764.388828543388	15
1	636	3776.359603211856	15
1	638	3790.835698736286	15
1	640	3816.652560055536	15
1	642	3832.196090976684	15
1	644	3836.303021346897	15
1	646	3846.424342823888	15
1	649	3854.582023966239	14
1	651	3854.582023966239	14
1	652	3855.582023966239	15
1	654	3881.605822396934	15
1	656	3892.902522431184	15
1	658	3919.660168482315	15
1	660	3936.251229205093	15
1	662	3970.813920256761	15
1	664	3976.593141986574	15
1	666	4008.094836954845	15
1	668	4024.128369064679	15
1	670	4024.350456478486	15
1	672	4031.459386679094	15
1	674	4034.131621587204	15
1	677	4036.797484626717	14
1	679	4036.797484626717	14
1	680	4037.797484626717	15
1	683	4066.101761592656	14
1	685	4066.101761592656	14
1	686	4067.101761592656	15
1	688	4100.930782501777	15
1	690	4111.777404874429	15
1	692	4111.845010229781	15
1	694	4119.508198859378	15
1	696	4121.961949481263	15
1	698	4150.739172476967	15
1	700	4154.248060613702	15
1	702	4166.182149246929	15
1	704	4170.415672219432	15
1	706	4172.131811614753	15
1	708	4205.163317299901	15
1	711	4221.098385980523	14
1	713	4221.098385980523	14
1	714	4222.098385980523	15
1	716	4265.312334049631	15
1	718	4319.311716831312	15
1	720	4328.144409819178	15
1	722	4335.563565475951	15
1	724	4344.063412706774	15
1	726	4350.051644458876	15
1	728	4374.928847195416	15
1	730	4418.371710567431	15
1	733	4424.432029738681	14
1	735	4424.432029738681	14
1	736	4424.930084086143	14
1	738	4425.432029738681	15
1	741	4461.086835305783	14
1	743	4461.086835305783	14
1	744	4462.086835305783	15
1	746	4475.844413736262	15
1	748	4476.035967906404	15
1	750	4482.090004888101	15
1	752	4517.82976262999	15
1	754	4522.638307802458	15
1	756	4541.494620595865	15
1	758	4569.210716940435	15
1	760	4578.642292634349	15
1	762	4601.890110822068	15
1	765	4609.292816483564	14
1	767	4609.292816483564	14
1	768	4610.292816483564	15
1	770	4631.383774542233	15
1	772	4639.325084252197	15
1	774	4644.577751397461	15
1	776	4646.927216137712	15
1	778	4647.876658345493	15
1	780	4653.859346985104	15
1	782	4658.925539638918	15
1	784	4669.076613894312	15
1	786	4688.238970356808	15
1	788	4708.063907879057	15
1	790	4713.620630185314	15
1	792	4721.585929977166	15
1	795	4724.297327308169	14
1	797	4724.297327308169	14
1	799	4724.59800270028	13
1	800	4724.916855609177	13
1	802	4725.297327308169	14
1	805	4725.297327308169	14
1	806	4726.297327308169	15
1	808	4750.81261397638	15
1	810	4768.79472911804	15
1	813	4785.091938819818	14
1	815	4785.091938819818	14
1	816	4786.091938819818	15
1	818	4793.931649645157	15
1	820	4818.97186287367	15
1	822	4822.246227638618	15
1	825	4822.434169482915	14
1	827	4822.434169482915	14
1	828	4823.434169482915	15
1	830	4823.453212807194	15
1	832	4823.615469629536	15
1	834	4831.338636755203	15
1	836	4834.996439436767	15
1	838	4845.26176083317	15
1	840	4846.022394991429	15
1	842	4872.82935914286	15
1	844	4874.164006741927	15
1	846	4886.356429060805	15
1	848	4892.463950591348	15
1	850	4906.825075454602	15
1	852	4960.238555948131	15
1	854	4977.525974183178	15
1	856	4978.126021345668	15
1	858	4987.506441375954	15
1	861	4992.994382617409	14
1	863	4992.994382617409	14
1	864	4993.994382617409	15
1	866	4999.396179422635	15
1	868	5012.200401787092	15
1	870	5029.671886869694	15
1	872	5042.585926528093	15
1	874	5049.153552727209	15
1	876	5051.8037530072	15
1	878	5054.707064950252	15
1	880	5057.016845307303	15
1	882	5071.432480464457	15
1	884	5073.045771669592	15
1	886	5113.279378844725	15
1	888	5114.722995418839	15
1	891	5119.54937261035	14
1	893	5119.54937261035	14
1	894	5120.54937261035	15
1	896	5141.578528737514	15
1	898	5176.522466629556	15
1	900	5215.586960642865	15
1	902	5235.108022225315	15
1	904	5255.153251955804	15
1	906	5261.771267789478	15
1	908	5285.334323281802	15
1	910	5302.180476000122	15
1	912	5306.754868033515	15
1	914	5309.671452170485	15
1	916	5336.197387550371	15
1	919	5344.836986612755	14
1	921	5344.836986612755	14
1	922	5345.836986612755	15
1	925	5348.048918175926	14
1	927	5348.048918175926	14
1	928	5349.048918175926	15
1	931	5367.755847324267	14
1	933	5367.755847324267	14
1	934	5368.755847324267	15
1	936	5389.501637163205	15
1	938	5399.714061244269	15
1	941	5421.772603217584	14
1	943	5421.772603217584	14
1	944	5422.772603217584	15
1	946	5450.931981624024	15
1	948	5461.116274312117	15
1	951	5468.384240843859	14
1	953	5468.384240843859	14
1	954	5469.384240843859	15
1	956	5477.316455829816	15
1	958	5505.967611026291	15
1	960	5587.359260865378	15
1	962	5588.839800576287	15
1	964	5590.493492684351	15
1	966	5607.227678915655	15
1	968	5656.924006537759	15
1	971	5695.742989314433	14
1	973	5695.742989314433	14
1	974	5696.742989314433	15
1	976	5702.934080799147	15
1	978	5712.8187740879	15
1	980	5744.330926661757	15
1	982	5744.895457582464	15
1	985	5795.749414073007	14
1	987	5795.749414073007	14
1	988	5796.749414073007	15
1	990	5798.12482212717	15
1	992	5805.442771886966	15
1	994	5813.72959332601	15
1	996	5826.379006230154	15
1	998	5857.489680733166	15
1	1000	5870.29739035635	15
1	1002	5889.302038305001	15
1	1004	5904.960404736054	15
1	1006	5906.688252013421	15
1	1008	5908.297273330549	15
1	1010	5909.2571552775	15
1	1012	5910.765613113305	15
1	1014	5915.277686292259	15
1	1016	5945.77005555657	15
1	1018	5958.085389222223	15
1	1020	5970.079470850365	15
1	1023	5977.919315393663	14
1	1025	5977.919315393663	14
1	1026	5978.919315393663	15
1	1028	5987.568506949148	15
1	1030	6000.677825147343	15
1	1032	6004.843672091506	15
1	1035	6007.947795307964	14
1	1037	6007.947795307964	14
1	1038	6008.947795307964	15
1	1040	6009.709439953653	15
1	1042	6012.050701902903	15
1	1044	6023.306633072444	15
1	1046	6089.932691017778	15
1	1048	6094.608956454065	15
1	1050	6102.424311908612	15
1	1052	6103.203226937536	15
1	1054	6109.389255617554	15
1	1056	6139.071500199079	15
1	1058	6166.491223983652	15
1	1061	6177.383271561422	14
1	1063	6177.383271561422	14
1	1064	6178.383271561422	15
1	1066	6183.519863107144	15
1	1068	6191.170328565268	15
1	1070	6216.652643077132	15
1	1072	6222.323263404023	15
1	1074	6226.928349952815	15
1	1076	6245.031738472103	15
1	1078	6249.739183671409	15
1	1080	6268.009059688232	15
1	1082	6280.148685905444	15
2	1	0	0.066666666666667
2	3	20.93217930079	0.13333333333333
2	5	36.31923149197	0.2
2	7	49.439250491669	0.26666666666667
2	9	58.623391936174	0.33333333333333
2	11	75.926046947238	0.4
2	13	85.518033561954	0.46666666666667
2	15	122.576773929226	0.53333333333333
2	17	177.825311928031	0.6
2	19	185.885347010505	0.66666666666667
2	21	212.033615637555	0.73333333333333
2	23	224.578184192768	0.8
2	26	227.669178296773	0.73333333333333
2	28	238.568731741105	0.8
2	30	281.872966505254	0.86666666666667
2	32	283.101055763005	0.93333333333333
2	34	284.62040619841	1
2	36	284.960832671728	1
2	38	314.752293729039	1
2	40	317.272807956789	1
2	42	381.359839109153	1
2	44	408.259873690696	1