version 3
run SmallParking-0-20250605-20:49:00-19831
attr configname SmallParking
attr datetime 20250605-20:49:00
attr datetimef 20250605-204900
attr experiment SmallParking
attr inifile omnetpp.ini
attr iterationvars ""
attr iterationvarsd ""
attr iterationvarsf ""
attr measurement ""
attr network smartparkingsystem.SmartParkingNetwork
attr processid 19831
attr repetition 0
attr replication #0
attr resultdir results
attr runnumber 0
attr seedset 0
config **.parkingLot.numSlots 10
config **.parkingLot.arrivalRate 0.02
config network smartparkingsystem.SmartParkingNetwork
config sim-time-limit 7200s
config seed-set 0
config **.parkingLot.numSlots 20
config **.parkingLot.arrivalRate 0.05
config **.parkingLot.avgParkingDuration 600.0
config **.parkingLot.simulationTime 7200.0
config **.parkingLot.sensorMalfunctionRate 0.001
config **.parkingLot.sensorRepairTime 300.0
config output-vector-file results/SmallParking-0.vec
config output-scalar-file results/SmallParking-0.sca
config repeat 10

vector 0 SmartParkingNetwork.parkingLot vehicleArrival:vector ETV
attr recordingmode vector
attr title "Vehicle Arrivals"
vector 1 SmartParkingNetwork.parkingLot queueLength:vector ETV
attr recordingmode vector
attr title "Queue Length"
vector 2 SmartParkingNetwork.parkingLot occupiedSlots:vector ETV
attr recordingmode vector
attr title "Occupied Slots"
vector 3 SmartParkingNetwork.parkingLot utilizationRate:vector ETV
attr recordingmode vector
attr title "Utilization Rate"
0	1	0	0
1	1	0	0
2	1	0	1
3	1	0	0.1
vector 4 SmartParkingNetwork.parkingLot waitingTime:vector ETV
attr recordingmode vector
attr title "Waiting Time"
1	2	0	0
2	2	0	1
3	2	0	0.1
4	2	0	0
0	3	62.796537902369	1
1	3	62.796537902369	0
2	3	62.796537902369	2
3	3	62.796537902369	0.2
1	4	62.796537902369	0
2	4	62.796537902369	2
3	4	62.796537902369	0.2
4	4	62.796537902369	0
0	5	108.957694475909	2
1	5	108.957694475909	0
2	5	108.957694475909	3
3	5	108.957694475909	0.3
1	6	108.957694475909	0
2	6	108.957694475909	3
3	6	108.957694475909	0.3
4	6	108.957694475909	0
0	7	148.317751475005	3
1	7	148.317751475005	0
2	7	148.317751475005	4
3	7	148.317751475005	0.4
1	8	148.317751475005	0
2	8	148.317751475005	4
3	8	148.317751475005	0.4
4	8	148.317751475005	0
0	9	175.870175808521	4
1	9	175.870175808521	0
2	9	175.870175808521	5
3	9	175.870175808521	0.5
1	10	175.870175808521	0
2	10	175.870175808521	5
3	10	175.870175808521	0.5
4	10	175.870175808521	0
0	11	227.778140841714	5
1	11	227.778140841714	0
2	11	227.778140841714	6
3	11	227.778140841714	0.6
1	12	227.778140841714	0
2	12	227.778140841714	6
3	12	227.778140841714	0.6
4	12	227.778140841714	0
0	13	256.554100685863	6
1	13	256.554100685863	0
2	13	256.554100685863	7
3	13	256.554100685863	0.7
1	14	256.554100685863	0
2	14	256.554100685863	7
3	14	256.554100685863	0.7
4	14	256.554100685863	0
0	15	367.730321787679	7
1	15	367.730321787679	0
2	15	367.730321787679	8
3	15	367.730321787679	0.8
1	16	367.730321787679	0
2	16	367.730321787679	8
3	16	367.730321787679	0.8
4	16	367.730321787679	0
vector 5 SmartParkingNetwork.parkingLot vehicleDeparture:vector ETV
attr recordingmode vector
attr title "Vehicle Departures"
1	17	402.761123243528	0
2	17	402.761123243528	7
3	17	402.761123243528	0.7
5	17	402.761123243528	7
1	18	468.449584168376	0
2	18	468.449584168376	6
3	18	468.449584168376	0.6
5	18	468.449584168376	6
1	19	518.855039074702	0
2	19	518.855039074702	5
3	19	518.855039074702	0.5
5	19	518.855039074702	5
0	20	533.475935784093	8
1	20	533.475935784093	0
2	20	533.475935784093	6
3	20	533.475935784093	0.6
1	21	533.475935784093	0
2	21	533.475935784093	6
3	21	533.475935784093	0.6
4	21	533.475935784093	0
1	22	539.136233090365	0
2	22	539.136233090365	5
3	22	539.136233090365	0.5
5	22	539.136233090365	0
0	23	557.656041031515	9
1	23	557.656041031515	0
2	23	557.656041031515	6
3	23	557.656041031515	0.6
1	24	557.656041031515	0
2	24	557.656041031515	6
3	24	557.656041031515	0.6
4	24	557.656041031515	0
0	25	636.100846912666	10
1	25	636.100846912666	0
2	25	636.100846912666	7
3	25	636.100846912666	0.7
1	26	636.100846912666	0
2	26	636.100846912666	7
3	26	636.100846912666	0.7
4	26	636.100846912666	0
0	27	673.734552578306	11
1	27	673.734552578306	0
2	27	673.734552578306	8
3	27	673.734552578306	0.8
1	28	673.734552578306	0
2	28	673.734552578306	8
3	28	673.734552578306	0.8
4	28	673.734552578306	0
0	29	715.706195223318	12
1	29	715.706195223318	0
2	29	715.706195223318	9
3	29	715.706195223318	0.9
1	30	715.706195223318	0
2	30	715.706195223318	9
3	30	715.706195223318	0.9
4	30	715.706195223318	0
1	31	724.489620289171	0
2	31	724.489620289171	8
3	31	724.489620289171	0.8
5	31	724.489620289171	8
1	32	762.074031644536	0
2	32	762.074031644536	7
3	32	762.074031644536	0.7
5	32	762.074031644536	4
0	33	845.618899515766	13
1	33	845.618899515766	0
2	33	845.618899515766	8
3	33	845.618899515766	0.8
1	34	845.618899515766	0
2	34	845.618899515766	8
3	34	845.618899515766	0.8
4	34	845.618899515766	0
0	35	849.30316728902	14
1	35	849.30316728902	0
2	35	849.30316728902	9
3	35	849.30316728902	0.9
1	36	849.30316728902	0
2	36	849.30316728902	9
3	36	849.30316728902	0.9
4	36	849.30316728902	0
0	37	853.861218595235	15
1	37	853.861218595235	0
2	37	853.861218595235	10
3	37	853.861218595235	1
1	38	853.861218595235	0
2	38	853.861218595235	10
3	38	853.861218595235	1
4	38	853.861218595235	0
0	39	854.882498015188	16
1	39	854.882498015188	1
2	39	854.882498015188	10
3	39	854.882498015188	1
0	40	944.256881187121	17
1	40	944.256881187121	2
2	40	944.256881187121	10
3	40	944.256881187121	1
1	41	947.323849982034	1
2	41	947.323849982034	10
3	41	947.323849982034	1
5	41	947.323849982034	9
1	42	947.323849982034	1
2	42	947.323849982034	10
3	42	947.323849982034	1
4	42	947.323849982034	92.441351966846
1	43	1015.029400632856	0
2	43	1015.029400632856	10
3	43	1015.029400632856	1
5	43	1015.029400632856	12
1	44	1015.029400632856	0
2	44	1015.029400632856	10
3	44	1015.029400632856	1
4	44	1015.029400632856	70.772519445735
0	45	1019.54609411899	18
1	45	1019.54609411899	1
2	45	1019.54609411899	10
3	45	1019.54609411899	1
1	46	1066.064092910971	0
2	46	1066.064092910971	10
3	46	1066.064092910971	1
5	46	1066.064092910971	11
1	47	1066.064092910971	0
2	47	1066.064092910971	10
3	47	1066.064092910971	1
4	47	1066.064092910971	46.517998791981
1	48	1096.249965034588	0
2	48	1096.249965034588	9
3	48	1096.249965034588	0.9
5	48	1096.249965034588	14
0	49	1121.561807016085	19
1	49	1121.561807016085	0
2	49	1121.561807016085	10
3	49	1121.561807016085	1
1	50	1121.561807016085	0
2	50	1121.561807016085	10
3	50	1121.561807016085	1
4	50	1121.561807016085	0
1	51	1156.80260510996	0
2	51	1156.80260510996	9
3	51	1156.80260510996	0.9
5	51	1156.80260510996	18
1	52	1178.55906514717	0
2	52	1178.55906514717	8
3	52	1178.55906514717	0.8
5	52	1178.55906514717	1
1	53	1222.872732335163	0
2	53	1222.872732335163	7
3	53	1222.872732335163	0.7
5	53	1222.872732335163	16
1	54	1275.696183996649	0
2	54	1275.696183996649	6
3	54	1275.696183996649	0.6
5	54	1275.696183996649	3
1	55	1279.884896006587	0
2	55	1279.884896006587	5
3	55	1279.884896006587	0.5
5	55	1279.884896006587	2
0	56	1313.822900473177	20
1	56	1313.822900473177	0
2	56	1313.822900473177	6
3	56	1313.822900473177	0.6
1	57	1313.822900473177	0
2	57	1313.822900473177	6
3	57	1313.822900473177	0.6
4	57	1313.822900473177	0
0	58	1394.084878326253	21
1	58	1394.084878326253	0
2	58	1394.084878326253	7
3	58	1394.084878326253	0.7
1	59	1394.084878326253	0
2	59	1394.084878326253	7
3	59	1394.084878326253	0.7
4	59	1394.084878326253	0
0	60	1425.031351307589	22
1	60	1425.031351307589	0
2	60	1425.031351307589	8
3	60	1425.031351307589	0.8
1	61	1425.031351307589	0
2	61	1425.031351307589	8
3	61	1425.031351307589	0.8
4	61	1425.031351307589	0
1	62	1480.62872358009	0
2	62	1480.62872358009	7
3	62	1480.62872358009	0.7
5	62	1480.62872358009	15

