file 7738 1749145762                                            
version 3
run SmallParking-0-20250605-20:49:00-19831
attr configname SmallParking
attr datetime 20250605-20:49:00
attr datetimef 20250605-204900
attr experiment SmallParking
attr inifile omnetpp.ini
attr iterationvars ""
attr iterationvarsd ""
attr iterationvarsf ""
attr measurement ""
attr network smartparkingsystem.SmartParkingNetwork
attr processid 19831
attr repetition 0
attr replication #0
attr resultdir results
attr runnumber 0
attr seedset 0
config **.parkingLot.numSlots 10
config **.parkingLot.arrivalRate 0.02
config network smartparkingsystem.SmartParkingNetwork
config sim-time-limit 7200s
config seed-set 0
config **.parkingLot.numSlots 20
config **.parkingLot.arrivalRate 0.05
config **.parkingLot.avgParkingDuration 600.0
config **.parkingLot.simulationTime 7200.0
config **.parkingLot.sensorMalfunctionRate 0.001
config **.parkingLot.sensorRepairTime 300.0
config output-vector-file results/SmallParking-0.vec
config output-scalar-file results/SmallParking-0.sca
config repeat 10

vector 0 SmartParkingNetwork.parkingLot vehicleArrival:vector ETV
attr recordingmode vector
attr title "Vehicle Arrivals"
vector 1 SmartParkingNetwork.parkingLot queueLength:vector ETV
attr recordingmode vector
attr title "Queue Length"
vector 2 SmartParkingNetwork.parkingLot occupiedSlots:vector ETV
attr recordingmode vector
attr title "Occupied Slots"
vector 3 SmartParkingNetwork.parkingLot utilizationRate:vector ETV
attr recordingmode vector
attr title "Utilization Rate"
0	1480 8 1 1 0 0 1 0 0 0 0
1	1488 8 1 1 0 0 1 0 0 0 0
2	1496 8 1 1 0 0 1 1 1 1 1
3	1504 10 1 1 0 0 1 0.1 0.1 0.1 0.01
vector 4 SmartParkingNetwork.parkingLot waitingTime:vector ETV
attr recordingmode vector
attr title "Waiting Time"
1	1629 8 2 2 0 0 1 0 0 0 0
2	1637 8 2 2 0 0 1 1 1 1 1
3	1645 10 2 2 0 0 1 0.1 0.1 0.1 0.01
4	1655 8 2 2 0 0 1 0 0 0 0
0	1663 22 3 3 62.796537902369 62.796537902369 1 1 1 1 1
1	1685 22 3 3 62.796537902369 62.796537902369 1 0 0 0 0
2	1707 22 3 3 62.796537902369 62.796537902369 1 2 2 2 4
3	1729 24 3 3 62.796537902369 62.796537902369 1 0.2 0.2 0.2 0.04
1	1753 22 4 4 62.796537902369 62.796537902369 1 0 0 0 0
2	1775 22 4 4 62.796537902369 62.796537902369 1 2 2 2 4
3	1797 24 4 4 62.796537902369 62.796537902369 1 0.2 0.2 0.2 0.04
4	1821 22 4 4 62.796537902369 62.796537902369 1 0 0 0 0
0	1843 23 5 5 108.957694475909 108.957694475909 1 2 2 2 4
1	1866 23 5 5 108.957694475909 108.957694475909 1 0 0 0 0
2	1889 23 5 5 108.957694475909 108.957694475909 1 3 3 3 9
3	1912 25 5 5 108.957694475909 108.957694475909 1 0.3 0.3 0.3 0.09
1	1937 23 6 6 108.957694475909 108.957694475909 1 0 0 0 0
2	1960 23 6 6 108.957694475909 108.957694475909 1 3 3 3 9
3	1983 25 6 6 108.957694475909 108.957694475909 1 0.3 0.3 0.3 0.09
4	2008 23 6 6 108.957694475909 108.957694475909 1 0 0 0 0
0	2031 23 7 7 148.317751475005 148.317751475005 1 3 3 3 9
1	2054 23 7 7 148.317751475005 148.317751475005 1 0 0 0 0
2	2077 23 7 7 148.317751475005 148.317751475005 1 4 4 4 16
3	2100 25 7 7 148.317751475005 148.317751475005 1 0.4 0.4 0.4 0.16
1	2125 23 8 8 148.317751475005 148.317751475005 1 0 0 0 0
2	2148 23 8 8 148.317751475005 148.317751475005 1 4 4 4 16
3	2171 25 8 8 148.317751475005 148.317751475005 1 0.4 0.4 0.4 0.16
4	2196 23 8 8 148.317751475005 148.317751475005 1 0 0 0 0
0	2219 23 9 9 175.870175808521 175.870175808521 1 4 4 4 16
1	2242 23 9 9 175.870175808521 175.870175808521 1 0 0 0 0
2	2265 23 9 9 175.870175808521 175.870175808521 1 5 5 5 25
3	2288 25 9 9 175.870175808521 175.870175808521 1 0.5 0.5 0.5 0.25
1	2313 24 10 10 175.870175808521 175.870175808521 1 0 0 0 0
2	2337 24 10 10 175.870175808521 175.870175808521 1 5 5 5 25
3	2361 26 10 10 175.870175808521 175.870175808521 1 0.5 0.5 0.5 0.25
4	2387 24 10 10 175.870175808521 175.870175808521 1 0 0 0 0
0	2411 24 11 11 227.778140841714 227.778140841714 1 5 5 5 25
1	2435 24 11 11 227.778140841714 227.778140841714 1 0 0 0 0
2	2459 24 11 11 227.778140841714 227.778140841714 1 6 6 6 36
3	2483 26 11 11 227.778140841714 227.778140841714 1 0.6 0.6 0.6 0.36
1	2509 24 12 12 227.778140841714 227.778140841714 1 0 0 0 0
2	2533 24 12 12 227.778140841714 227.778140841714 1 6 6 6 36
3	2557 26 12 12 227.778140841714 227.778140841714 1 0.6 0.6 0.6 0.36
4	2583 24 12 12 227.778140841714 227.778140841714 1 0 0 0 0
0	2607 24 13 13 256.554100685863 256.554100685863 1 6 6 6 36
1	2631 24 13 13 256.554100685863 256.554100685863 1 0 0 0 0
2	2655 24 13 13 256.554100685863 256.554100685863 1 7 7 7 49
3	2679 26 13 13 256.554100685863 256.554100685863 1 0.7 0.7 0.7 0.49
1	2705 24 14 14 256.554100685863 256.554100685863 1 0 0 0 0
2	2729 24 14 14 256.554100685863 256.554100685863 1 7 7 7 49
3	2753 26 14 14 256.554100685863 256.554100685863 1 0.7 0.7 0.7 0.49
4	2779 24 14 14 256.554100685863 256.554100685863 1 0 0 0 0
0	2803 24 15 15 367.730321787679 367.730321787679 1 7 7 7 49
1	2827 24 15 15 367.730321787679 367.730321787679 1 0 0 0 0
2	2851 24 15 15 367.730321787679 367.730321787679 1 8 8 8 64
3	2875 26 15 15 367.730321787679 367.730321787679 1 0.8 0.8 0.8 0.64
1	2901 24 16 16 367.730321787679 367.730321787679 1 0 0 0 0
2	2925 24 16 16 367.730321787679 367.730321787679 1 8 8 8 64
3	2949 26 16 16 367.730321787679 367.730321787679 1 0.8 0.8 0.8 0.64
4	2975 24 16 16 367.730321787679 367.730321787679 1 0 0 0 0
vector 5 SmartParkingNetwork.parkingLot vehicleDeparture:vector ETV
attr recordingmode vector
attr title "Vehicle Departures"
1	3125 24 17 17 402.761123243528 402.761123243528 1 0 0 0 0
2	3149 24 17 17 402.761123243528 402.761123243528 1 7 7 7 49
3	3173 26 17 17 402.761123243528 402.761123243528 1 0.7 0.7 0.7 0.49
5	3199 24 17 17 402.761123243528 402.761123243528 1 7 7 7 49
1	3223 24 18 18 468.449584168376 468.449584168376 1 0 0 0 0
2	3247 24 18 18 468.449584168376 468.449584168376 1 6 6 6 36
3	3271 26 18 18 468.449584168376 468.449584168376 1 0.6 0.6 0.6 0.36
5	3297 24 18 18 468.449584168376 468.449584168376 1 6 6 6 36
1	3321 24 19 19 518.855039074702 518.855039074702 1 0 0 0 0
2	3345 24 19 19 518.855039074702 518.855039074702 1 5 5 5 25
3	3369 26 19 19 518.855039074702 518.855039074702 1 0.5 0.5 0.5 0.25
5	3395 24 19 19 518.855039074702 518.855039074702 1 5 5 5 25
0	3419 24 20 20 533.475935784093 533.475935784093 1 8 8 8 64
1	3443 24 20 20 533.475935784093 533.475935784093 1 0 0 0 0
2	3467 24 20 20 533.475935784093 533.475935784093 1 6 6 6 36
3	3491 26 20 20 533.475935784093 533.475935784093 1 0.6 0.6 0.6 0.36
1	3517 24 21 21 533.475935784093 533.475935784093 1 0 0 0 0
2	3541 24 21 21 533.475935784093 533.475935784093 1 6 6 6 36
3	3565 26 21 21 533.475935784093 533.475935784093 1 0.6 0.6 0.6 0.36
4	3591 24 21 21 533.475935784093 533.475935784093 1 0 0 0 0
1	3615 24 22 22 539.136233090365 539.136233090365 1 0 0 0 0
2	3639 24 22 22 539.136233090365 539.136233090365 1 5 5 5 25
3	3663 26 22 22 539.136233090365 539.136233090365 1 0.5 0.5 0.5 0.25
5	3689 24 22 22 539.136233090365 539.136233090365 1 0 0 0 0
0	3713 24 23 23 557.656041031515 557.656041031515 1 9 9 9 81
1	3737 24 23 23 557.656041031515 557.656041031515 1 0 0 0 0
2	3761 24 23 23 557.656041031515 557.656041031515 1 6 6 6 36
3	3785 26 23 23 557.656041031515 557.656041031515 1 0.6 0.6 0.6 0.36
1	3811 24 24 24 557.656041031515 557.656041031515 1 0 0 0 0
2	3835 24 24 24 557.656041031515 557.656041031515 1 6 6 6 36
3	3859 26 24 24 557.656041031515 557.656041031515 1 0.6 0.6 0.6 0.36
4	3885 24 24 24 557.656041031515 557.656041031515 1 0 0 0 0
0	3909 25 25 25 636.100846912666 636.100846912666 1 10 10 10 100
1	3934 24 25 25 636.100846912666 636.100846912666 1 0 0 0 0
2	3958 24 25 25 636.100846912666 636.100846912666 1 7 7 7 49
3	3982 26 25 25 636.100846912666 636.100846912666 1 0.7 0.7 0.7 0.49
1	4008 24 26 26 636.100846912666 636.100846912666 1 0 0 0 0
2	4032 24 26 26 636.100846912666 636.100846912666 1 7 7 7 49
3	4056 26 26 26 636.100846912666 636.100846912666 1 0.7 0.7 0.7 0.49
4	4082 24 26 26 636.100846912666 636.100846912666 1 0 0 0 0
0	4106 25 27 27 673.734552578306 673.734552578306 1 11 11 11 121
1	4131 24 27 27 673.734552578306 673.734552578306 1 0 0 0 0
2	4155 24 27 27 673.734552578306 673.734552578306 1 8 8 8 64
3	4179 26 27 27 673.734552578306 673.734552578306 1 0.8 0.8 0.8 0.64
1	4205 24 28 28 673.734552578306 673.734552578306 1 0 0 0 0
2	4229 24 28 28 673.734552578306 673.734552578306 1 8 8 8 64
3	4253 26 28 28 673.734552578306 673.734552578306 1 0.8 0.8 0.8 0.64
4	4279 24 28 28 673.734552578306 673.734552578306 1 0 0 0 0
0	4303 25 29 29 715.706195223318 715.706195223318 1 12 12 12 144
1	4328 24 29 29 715.706195223318 715.706195223318 1 0 0 0 0
2	4352 24 29 29 715.706195223318 715.706195223318 1 9 9 9 81
3	4376 26 29 29 715.706195223318 715.706195223318 1 0.9 0.9 0.9 0.81
1	4402 24 30 30 715.706195223318 715.706195223318 1 0 0 0 0
2	4426 24 30 30 715.706195223318 715.706195223318 1 9 9 9 81
3	4450 26 30 30 715.706195223318 715.706195223318 1 0.9 0.9 0.9 0.81
4	4476 24 30 30 715.706195223318 715.706195223318 1 0 0 0 0
1	4500 24 31 31 724.489620289171 724.489620289171 1 0 0 0 0
2	4524 24 31 31 724.489620289171 724.489620289171 1 8 8 8 64
3	4548 26 31 31 724.489620289171 724.489620289171 1 0.8 0.8 0.8 0.64
5	4574 24 31 31 724.489620289171 724.489620289171 1 8 8 8 64
1	4598 24 32 32 762.074031644536 762.074031644536 1 0 0 0 0
2	4622 24 32 32 762.074031644536 762.074031644536 1 7 7 7 49
3	4646 26 32 32 762.074031644536 762.074031644536 1 0.7 0.7 0.7 0.49
5	4672 24 32 32 762.074031644536 762.074031644536 1 4 4 4 16
0	4696 25 33 33 845.618899515766 845.618899515766 1 13 13 13 169
1	4721 24 33 33 845.618899515766 845.618899515766 1 0 0 0 0
2	4745 24 33 33 845.618899515766 845.618899515766 1 8 8 8 64
3	4769 26 33 33 845.618899515766 845.618899515766 1 0.8 0.8 0.8 0.64
1	4795 24 34 34 845.618899515766 845.618899515766 1 0 0 0 0
2	4819 24 34 34 845.618899515766 845.618899515766 1 8 8 8 64
3	4843 26 34 34 845.618899515766 845.618899515766 1 0.8 0.8 0.8 0.64
4	4869 24 34 34 845.618899515766 845.618899515766 1 0 0 0 0
0	4893 24 35 35 849.30316728902 849.30316728902 1 14 14 14 196
1	4917 23 35 35 849.30316728902 849.30316728902 1 0 0 0 0
2	4940 23 35 35 849.30316728902 849.30316728902 1 9 9 9 81
3	4963 25 35 35 849.30316728902 849.30316728902 1 0.9 0.9 0.9 0.81
1	4988 23 36 36 849.30316728902 849.30316728902 1 0 0 0 0
2	5011 23 36 36 849.30316728902 849.30316728902 1 9 9 9 81
3	5034 25 36 36 849.30316728902 849.30316728902 1 0.9 0.9 0.9 0.81
4	5059 23 36 36 849.30316728902 849.30316728902 1 0 0 0 0
0	5082 25 37 37 853.861218595235 853.861218595235 1 15 15 15 225
1	5107 24 37 37 853.861218595235 853.861218595235 1 0 0 0 0
2	5131 25 37 37 853.861218595235 853.861218595235 1 10 10 10 100
3	5156 24 37 37 853.861218595235 853.861218595235 1 1 1 1 1
1	5180 24 38 38 853.861218595235 853.861218595235 1 0 0 0 0
2	5204 25 38 38 853.861218595235 853.861218595235 1 10 10 10 100
3	5229 24 38 38 853.861218595235 853.861218595235 1 1 1 1 1
4	5253 24 38 38 853.861218595235 853.861218595235 1 0 0 0 0
0	5277 25 39 39 854.882498015188 854.882498015188 1 16 16 16 256
1	5302 24 39 39 854.882498015188 854.882498015188 1 1 1 1 1
2	5326 25 39 39 854.882498015188 854.882498015188 1 10 10 10 100
3	5351 24 39 39 854.882498015188 854.882498015188 1 1 1 1 1
0	5375 25 40 40 944.256881187121 944.256881187121 1 17 17 17 289
1	5400 24 40 40 944.256881187121 944.256881187121 1 2 2 2 4
2	5424 25 40 40 944.256881187121 944.256881187121 1 10 10 10 100
3	5449 24 40 40 944.256881187121 944.256881187121 1 1 1 1 1
1	5473 24 41 41 947.323849982034 947.323849982034 1 1 1 1 1
2	5497 25 41 41 947.323849982034 947.323849982034 1 10 10 10 100
3	5522 24 41 41 947.323849982034 947.323849982034 1 1 1 1 1
5	5546 24 41 41 947.323849982034 947.323849982034 1 9 9 9 81
1	5570 24 42 42 947.323849982034 947.323849982034 1 1 1 1 1
2	5594 25 42 42 947.323849982034 947.323849982034 1 10 10 10 100
3	5619 24 42 42 947.323849982034 947.323849982034 1 1 1 1 1
4	5643 38 42 42 947.323849982034 947.323849982034 1 92.441351966846 92.441351966846 92.441351966846 8545.4035534583
1	5681 25 43 43 1015.029400632856 1015.029400632856 1 0 0 0 0
2	5706 26 43 43 1015.029400632856 1015.029400632856 1 10 10 10 100
3	5732 25 43 43 1015.029400632856 1015.029400632856 1 1 1 1 1
5	5757 26 43 43 1015.029400632856 1015.029400632856 1 12 12 12 144
1	5783 25 44 44 1015.029400632856 1015.029400632856 1 0 0 0 0
2	5808 26 44 44 1015.029400632856 1015.029400632856 1 10 10 10 100
3	5834 25 44 44 1015.029400632856 1015.029400632856 1 1 1 1 1
4	5859 39 44 44 1015.029400632856 1015.029400632856 1 70.772519445735 70.772519445735 70.772519445735 5008.7495086969
0	5898 25 45 45 1019.54609411899 1019.54609411899 1 18 18 18 324
1	5923 24 45 45 1019.54609411899 1019.54609411899 1 1 1 1 1
2	5947 25 45 45 1019.54609411899 1019.54609411899 1 10 10 10 100
3	5972 24 45 45 1019.54609411899 1019.54609411899 1 1 1 1 1
1	5996 25 46 46 1066.064092910971 1066.064092910971 1 0 0 0 0
2	6021 26 46 46 1066.064092910971 1066.064092910971 1 10 10 10 100
3	6047 25 46 46 1066.064092910971 1066.064092910971 1 1 1 1 1
5	6072 26 46 46 1066.064092910971 1066.064092910971 1 11 11 11 121
1	6098 25 47 47 1066.064092910971 1066.064092910971 1 0 0 0 0
2	6123 26 47 47 1066.064092910971 1066.064092910971 1 10 10 10 100
3	6149 25 47 47 1066.064092910971 1066.064092910971 1 1 1 1 1
4	6174 39 47 47 1066.064092910971 1066.064092910971 1 46.517998791981 46.517998791981 46.517998791981 2163.9242116107
1	6213 25 48 48 1096.249965034588 1096.249965034588 1 0 0 0 0
2	6238 25 48 48 1096.249965034588 1096.249965034588 1 9 9 9 81
3	6263 27 48 48 1096.249965034588 1096.249965034588 1 0.9 0.9 0.9 0.81
5	6290 26 48 48 1096.249965034588 1096.249965034588 1 14 14 14 196
0	6316 26 49 49 1121.561807016085 1121.561807016085 1 19 19 19 361
1	6342 25 49 49 1121.561807016085 1121.561807016085 1 0 0 0 0
2	6367 26 49 49 1121.561807016085 1121.561807016085 1 10 10 10 100
3	6393 25 49 49 1121.561807016085 1121.561807016085 1 1 1 1 1
1	6418 25 50 50 1121.561807016085 1121.561807016085 1 0 0 0 0
2	6443 26 50 50 1121.561807016085 1121.561807016085 1 10 10 10 100
3	6469 25 50 50 1121.561807016085 1121.561807016085 1 1 1 1 1
4	6494 25 50 50 1121.561807016085 1121.561807016085 1 0 0 0 0
1	6519 24 51 51 1156.80260510996 1156.80260510996 1 0 0 0 0
2	6543 24 51 51 1156.80260510996 1156.80260510996 1 9 9 9 81
3	6567 26 51 51 1156.80260510996 1156.80260510996 1 0.9 0.9 0.9 0.81
5	6593 25 51 51 1156.80260510996 1156.80260510996 1 18 18 18 324
1	6618 24 52 52 1178.55906514717 1178.55906514717 1 0 0 0 0
2	6642 24 52 52 1178.55906514717 1178.55906514717 1 8 8 8 64
3	6666 26 52 52 1178.55906514717 1178.55906514717 1 0.8 0.8 0.8 0.64
5	6692 24 52 52 1178.55906514717 1178.55906514717 1 1 1 1 1
1	6716 25 53 53 1222.872732335163 1222.872732335163 1 0 0 0 0
2	6741 25 53 53 1222.872732335163 1222.872732335163 1 7 7 7 49
3	6766 27 53 53 1222.872732335163 1222.872732335163 1 0.7 0.7 0.7 0.49
5	6793 26 53 53 1222.872732335163 1222.872732335163 1 16 16 16 256
1	6819 25 54 54 1275.696183996649 1275.696183996649 1 0 0 0 0
2	6844 25 54 54 1275.696183996649 1275.696183996649 1 6 6 6 36
3	6869 27 54 54 1275.696183996649 1275.696183996649 1 0.6 0.6 0.6 0.36
5	6896 25 54 54 1275.696183996649 1275.696183996649 1 3 3 3 9
1	6921 25 55 55 1279.884896006587 1279.884896006587 1 0 0 0 0
2	6946 25 55 55 1279.884896006587 1279.884896006587 1 5 5 5 25
3	6971 27 55 55 1279.884896006587 1279.884896006587 1 0.5 0.5 0.5 0.25
5	6998 25 55 55 1279.884896006587 1279.884896006587 1 2 2 2 4
0	7023 26 56 56 1313.822900473177 1313.822900473177 1 20 20 20 400
1	7049 25 56 56 1313.822900473177 1313.822900473177 1 0 0 0 0
2	7074 25 56 56 1313.822900473177 1313.822900473177 1 6 6 6 36
3	7099 27 56 56 1313.822900473177 1313.822900473177 1 0.6 0.6 0.6 0.36
1	7126 25 57 57 1313.822900473177 1313.822900473177 1 0 0 0 0
2	7151 25 57 57 1313.822900473177 1313.822900473177 1 6 6 6 36
3	7176 27 57 57 1313.822900473177 1313.822900473177 1 0.6 0.6 0.6 0.36
4	7203 25 57 57 1313.822900473177 1313.822900473177 1 0 0 0 0
0	7228 26 58 58 1394.084878326253 1394.084878326253 1 21 21 21 441
1	7254 25 58 58 1394.084878326253 1394.084878326253 1 0 0 0 0
2	7279 25 58 58 1394.084878326253 1394.084878326253 1 7 7 7 49
3	7304 27 58 58 1394.084878326253 1394.084878326253 1 0.7 0.7 0.7 0.49
1	7331 25 59 59 1394.084878326253 1394.084878326253 1 0 0 0 0
2	7356 25 59 59 1394.084878326253 1394.084878326253 1 7 7 7 49
3	7381 27 59 59 1394.084878326253 1394.084878326253 1 0.7 0.7 0.7 0.49
4	7408 25 59 59 1394.084878326253 1394.084878326253 1 0 0 0 0
0	7433 26 60 60 1425.031351307589 1425.031351307589 1 22 22 22 484
1	7459 25 60 60 1425.031351307589 1425.031351307589 1 0 0 0 0
2	7484 25 60 60 1425.031351307589 1425.031351307589 1 8 8 8 64
3	7509 27 60 60 1425.031351307589 1425.031351307589 1 0.8 0.8 0.8 0.64
1	7536 25 61 61 1425.031351307589 1425.031351307589 1 0 0 0 0
2	7561 25 61 61 1425.031351307589 1425.031351307589 1 8 8 8 64
3	7586 27 61 61 1425.031351307589 1425.031351307589 1 0.8 0.8 0.8 0.64
4	7613 25 61 61 1425.031351307589 1425.031351307589 1 0 0 0 0
1	7638 24 62 62 1480.62872358009 1480.62872358009 1 0 0 0 0
2	7662 24 62 62 1480.62872358009 1480.62872358009 1 7 7 7 49
3	7686 26 62 62 1480.62872358009 1480.62872358009 1 0.7 0.7 0.7 0.49
5	7712 25 62 62 1480.62872358009 1480.62872358009 1 15 15 15 225

